# vtk DataFile Version 3.0
tension_beam_2_materials_C1_VUKIMS_02.vtk
ASCII
DATASET UNSTRUCTURED_GRID
FIELD FieldData 2
TIME 1 1 double
1.000000e+00
CYCLE 1 1 int
2
POINTS 1352 double
      0.000000000000e+00       0.000000000000e+00       0.000000000000e+00
      4.000000000000e-01       0.000000000000e+00       0.000000000000e+00
      8.000000000000e-01       0.000000000000e+00       0.000000000000e+00
      1.200000000000e+00       0.000000000000e+00       0.000000000000e+00
      1.600000000000e+00       0.000000000000e+00       0.000000000000e+00
      2.000000000000e+00       0.000000000000e+00       0.000000000000e+00
      2.400000000000e+00       0.000000000000e+00       0.000000000000e+00
      2.800000000000e+00       0.000000000000e+00       0.000000000000e+00
      3.200000000000e+00       0.000000000000e+00       0.000000000000e+00
      3.600000000000e+00       0.000000000000e+00       0.000000000000e+00
      4.000000000000e+00       0.000000000000e+00       0.000000000000e+00
      4.400000000000e+00       0.000000000000e+00       0.000000000000e+00
      4.800000000000e+00       0.000000000000e+00       0.000000000000e+00
      5.200000000000e+00       0.000000000000e+00       0.000000000000e+00
      5.600000000000e+00       0.000000000000e+00       0.000000000000e+00
      6.000000000000e+00       0.000000000000e+00       0.000000000000e+00
      6.400000000000e+00       0.000000000000e+00       0.000000000000e+00
      6.800000000000e+00       0.000000000000e+00       0.000000000000e+00
      7.200000000000e+00       0.000000000000e+00       0.000000000000e+00
      7.600000000000e+00       0.000000000000e+00       0.000000000000e+00
      8.000000000000e+00       0.000000000000e+00       0.000000000000e+00
      8.400000000000e+00       0.000000000000e+00       0.000000000000e+00
      8.800000000000e+00       0.000000000000e+00       0.000000000000e+00
      9.200000000000e+00       0.000000000000e+00       0.000000000000e+00
      9.600000000000e+00       0.000000000000e+00       0.000000000000e+00
      1.000000000000e+01       0.000000000000e+00       0.000000000000e+00
      0.000000000000e+00       8.000000000000e-02       0.000000000000e+00
      4.000000000000e-01       8.000000000000e-02       0.000000000000e+00
      8.000000000000e-01       8.000000000000e-02       0.000000000000e+00
      1.200000000000e+00       8.000000000000e-02       0.000000000000e+00
      1.600000000000e+00       8.000000000000e-02       0.000000000000e+00
      2.000000000000e+00       8.000000000000e-02       0.000000000000e+00
      2.400000000000e+00       8.000000000000e-02       0.000000000000e+00
      2.800000000000e+00       8.000000000000e-02       0.000000000000e+00
      3.200000000000e+00       8.000000000000e-02       0.000000000000e+00
      3.600000000000e+00       8.000000000000e-02       0.000000000000e+00
      4.000000000000e+00       8.000000000000e-02       0.000000000000e+00
      4.400000000000e+00       8.000000000000e-02       0.000000000000e+00
      4.800000000000e+00       8.000000000000e-02       0.000000000000e+00
      5.200000000000e+00       8.000000000000e-02       0.000000000000e+00
      5.600000000000e+00       8.000000000000e-02       0.000000000000e+00
      6.000000000000e+00       8.000000000000e-02       0.000000000000e+00
      6.400000000000e+00       8.000000000000e-02       0.000000000000e+00
      6.800000000000e+00       8.000000000000e-02       0.000000000000e+00
      7.200000000000e+00       8.000000000000e-02       0.000000000000e+00
      7.600000000000e+00       8.000000000000e-02       0.000000000000e+00
      8.000000000000e+00       8.000000000000e-02       0.000000000000e+00
      8.400000000000e+00       8.000000000000e-02       0.000000000000e+00
      8.800000000000e+00       8.000000000000e-02       0.000000000000e+00
      9.200000000000e+00       8.000000000000e-02       0.000000000000e+00
      9.600000000000e+00       8.000000000000e-02       0.000000000000e+00
      1.000000000000e+01       8.000000000000e-02       0.000000000000e+00
      0.000000000000e+00       1.600000000000e-01       0.000000000000e+00
      4.000000000000e-01       1.600000000000e-01       0.000000000000e+00
      8.000000000000e-01       1.600000000000e-01       0.000000000000e+00
      1.200000000000e+00       1.600000000000e-01       0.000000000000e+00
      1.600000000000e+00       1.600000000000e-01       0.000000000000e+00
      2.000000000000e+00       1.600000000000e-01       0.000000000000e+00
      2.400000000000e+00       1.600000000000e-01       0.000000000000e+00
      2.800000000000e+00       1.600000000000e-01       0.000000000000e+00
      3.200000000000e+00       1.600000000000e-01       0.000000000000e+00
      3.600000000000e+00       1.600000000000e-01       0.000000000000e+00
      4.000000000000e+00       1.600000000000e-01       0.000000000000e+00
      4.400000000000e+00       1.600000000000e-01       0.000000000000e+00
      4.800000000000e+00       1.600000000000e-01       0.000000000000e+00
      5.200000000000e+00       1.600000000000e-01       0.000000000000e+00
      5.600000000000e+00       1.600000000000e-01       0.000000000000e+00
      6.000000000000e+00       1.600000000000e-01       0.000000000000e+00
      6.400000000000e+00       1.600000000000e-01       0.000000000000e+00
      6.800000000000e+00       1.600000000000e-01       0.000000000000e+00
      7.200000000000e+00       1.600000000000e-01       0.000000000000e+00
      7.600000000000e+00       1.600000000000e-01       0.000000000000e+00
      8.000000000000e+00       1.600000000000e-01       0.000000000000e+00
      8.400000000000e+00       1.600000000000e-01       0.000000000000e+00
      8.800000000000e+00       1.600000000000e-01       0.000000000000e+00
      9.200000000000e+00       1.600000000000e-01       0.000000000000e+00
      9.600000000000e+00       1.600000000000e-01       0.000000000000e+00
      1.000000000000e+01       1.600000000000e-01       0.000000000000e+00
      0.000000000000e+00       2.400000000000e-01       0.000000000000e+00
      4.000000000000e-01       2.400000000000e-01       0.000000000000e+00
      8.000000000000e-01       2.400000000000e-01       0.000000000000e+00
      1.200000000000e+00       2.400000000000e-01       0.000000000000e+00
      1.600000000000e+00       2.400000000000e-01       0.000000000000e+00
      2.000000000000e+00       2.400000000000e-01       0.000000000000e+00
      2.400000000000e+00       2.400000000000e-01       0.000000000000e+00
      2.800000000000e+00       2.400000000000e-01       0.000000000000e+00
      3.200000000000e+00       2.400000000000e-01       0.000000000000e+00
      3.600000000000e+00       2.400000000000e-01       0.000000000000e+00
      4.000000000000e+00       2.400000000000e-01       0.000000000000e+00
      4.400000000000e+00       2.400000000000e-01       0.000000000000e+00
      4.800000000000e+00       2.400000000000e-01       0.000000000000e+00
      5.200000000000e+00       2.400000000000e-01       0.000000000000e+00
      5.600000000000e+00       2.400000000000e-01       0.000000000000e+00
      6.000000000000e+00       2.400000000000e-01       0.000000000000e+00
      6.400000000000e+00       2.400000000000e-01       0.000000000000e+00
      6.800000000000e+00       2.400000000000e-01       0.000000000000e+00
      7.200000000000e+00       2.400000000000e-01       0.000000000000e+00
      7.600000000000e+00       2.400000000000e-01       0.000000000000e+00
      8.000000000000e+00       2.400000000000e-01       0.000000000000e+00
      8.400000000000e+00       2.400000000000e-01       0.000000000000e+00
      8.800000000000e+00       2.400000000000e-01       0.000000000000e+00
      9.200000000000e+00       2.400000000000e-01       0.000000000000e+00
      9.600000000000e+00       2.400000000000e-01       0.000000000000e+00
      1.000000000000e+01       2.400000000000e-01       0.000000000000e+00
      0.000000000000e+00       3.200000000000e-01       0.000000000000e+00
      4.000000000000e-01       3.200000000000e-01       0.000000000000e+00
      8.000000000000e-01       3.200000000000e-01       0.000000000000e+00
      1.200000000000e+00       3.200000000000e-01       0.000000000000e+00
      1.600000000000e+00       3.200000000000e-01       0.000000000000e+00
      2.000000000000e+00       3.200000000000e-01       0.000000000000e+00
      2.400000000000e+00       3.200000000000e-01       0.000000000000e+00
      2.800000000000e+00       3.200000000000e-01       0.000000000000e+00
      3.200000000000e+00       3.200000000000e-01       0.000000000000e+00
      3.600000000000e+00       3.200000000000e-01       0.000000000000e+00
      4.000000000000e+00       3.200000000000e-01       0.000000000000e+00
      4.400000000000e+00       3.200000000000e-01       0.000000000000e+00
      4.800000000000e+00       3.200000000000e-01       0.000000000000e+00
      5.200000000000e+00       3.200000000000e-01       0.000000000000e+00
      5.600000000000e+00       3.200000000000e-01       0.000000000000e+00
      6.000000000000e+00       3.200000000000e-01       0.000000000000e+00
      6.400000000000e+00       3.200000000000e-01       0.000000000000e+00
      6.800000000000e+00       3.200000000000e-01       0.000000000000e+00
      7.200000000000e+00       3.200000000000e-01       0.000000000000e+00
      7.600000000000e+00       3.200000000000e-01       0.000000000000e+00
      8.000000000000e+00       3.200000000000e-01       0.000000000000e+00
      8.400000000000e+00       3.200000000000e-01       0.000000000000e+00
      8.800000000000e+00       3.200000000000e-01       0.000000000000e+00
      9.200000000000e+00       3.200000000000e-01       0.000000000000e+00
      9.600000000000e+00       3.200000000000e-01       0.000000000000e+00
      1.000000000000e+01       3.200000000000e-01       0.000000000000e+00
[...]
POINT_DATA 1352
VECTORS DSPL double
      0.000000000000e+00       0.000000000000e+00       0.000000000000e+00
      1.097782575232e-05       0.000000000000e+00       0.000000000000e+00
      2.195565150453e-05       0.000000000000e+00       0.000000000000e+00
      3.293347725664e-05       0.000000000000e+00       0.000000000000e+00
      4.391130300907e-05       0.000000000000e+00       0.000000000000e+00
      5.488912876128e-05       0.000000000000e+00       0.000000000000e+00
      6.586695451327e-05       0.000000000000e+00       0.000000000000e+00
      7.684478026659e-05       0.000000000000e+00       0.000000000000e+00
      8.782260601681e-05       0.000000000000e+00       0.000000000000e+00
      9.880043177635e-05       0.000000000000e+00       0.000000000000e+00
      1.097782575021e-04       0.000000000000e+00       0.000000000000e+00
      1.207560833532e-04       0.000000000000e+00       0.000000000000e+00
      1.317339087388e-04       0.000000000000e+00       0.000000000000e+00
      1.427117358572e-04       0.000000000000e+00       0.000000000000e+00
      1.536895565097e-04       0.000000000000e+00       0.000000000000e+00
      1.646674012941e-04       0.000000000000e+00       0.000000000000e+00
      1.756451560189e-04       0.000000000000e+00       0.000000000000e+00
      1.866232468490e-04       0.000000000000e+00       0.000000000000e+00
      1.976000833155e-04       0.000000000000e+00       0.000000000000e+00
      2.085816011324e-04       0.000000000000e+00       0.000000000000e+00
      2.195456479139e-04       0.000000000000e+00       0.000000000000e+00
      2.305748974862e-04       0.000000000000e+00       0.000000000000e+00
      2.413608069300e-04       0.000000000000e+00       0.000000000000e+00
      2.530548740989e-04       0.000000000000e+00       0.000000000000e+00
      2.613596504908e-04       0.000000000000e+00       0.000000000000e+00
      2.823134322671e-04       0.000000000000e+00       0.000000000000e+00
      0.000000000000e+00       0.000000000000e+00       0.000000000000e+00
      1.097782575232e-05       0.000000000000e+00       0.000000000000e+00
      2.195565150465e-05       0.000000000000e+00       0.000000000000e+00
      3.293347725664e-05       0.000000000000e+00       0.000000000000e+00
      4.391130300840e-05       0.000000000000e+00       0.000000000000e+00
      5.488912876128e-05       0.000000000000e+00       0.000000000000e+00
      6.586695451372e-05       0.000000000000e+00       0.000000000000e+00
      7.684478026659e-05       0.000000000000e+00       0.000000000000e+00
      8.782260601681e-05       0.000000000000e+00       0.000000000000e+00
      9.880043177590e-05       0.000000000000e+00       0.000000000000e+00
      1.097782575021e-04       0.000000000000e+00       0.000000000000e+00
      1.207560833523e-04       0.000000000000e+00       0.000000000000e+00
      1.317339087388e-04       0.000000000000e+00       0.000000000000e+00
      1.427117358572e-04       0.000000000000e+00       0.000000000000e+00
      1.536895565097e-04       0.000000000000e+00       0.000000000000e+00
      1.646674012941e-04       0.000000000000e+00       0.000000000000e+00
      1.756451560189e-04       0.000000000000e+00       0.000000000000e+00
      1.866232468490e-04       0.000000000000e+00       0.000000000000e+00
      1.976000833146e-04       0.000000000000e+00       0.000000000000e+00
      2.085816011324e-04       0.000000000000e+00       0.000000000000e+00
      2.195456479139e-04       0.000000000000e+00       0.000000000000e+00
      2.305748974862e-04       0.000000000000e+00       0.000000000000e+00
      2.413608069300e-04       0.000000000000e+00       0.000000000000e+00
      2.530548740989e-04       0.000000000000e+00       0.000000000000e+00
      2.613596504908e-04       0.000000000000e+00       0.000000000000e+00
      2.823134322689e-04       0.000000000000e+00       0.000000000000e+00
      0.000000000000e+00       0.000000000000e+00       0.000000000000e+00
      1.097782575232e-05       0.000000000000e+00       0.000000000000e+00
      2.195565150453e-05       0.000000000000e+00       0.000000000000e+00
      3.293347725664e-05       0.000000000000e+00       0.000000000000e+00
      4.391130300907e-05       0.000000000000e+00       0.000000000000e+00
      5.488912876128e-05       0.000000000000e+00       0.000000000000e+00
      6.586695451327e-05       0.000000000000e+00       0.000000000000e+00
      7.684478026615e-05       0.000000000000e+00       0.000000000000e+00
      8.782260601636e-05       0.000000000000e+00       0.000000000000e+00
      9.880043177635e-05       0.000000000000e+00       0.000000000000e+00
      1.097782575012e-04       0.000000000000e+00       0.000000000000e+00
      1.207560833523e-04       0.000000000000e+00       0.000000000000e+00
      1.317339087388e-04       0.000000000000e+00       0.000000000000e+00
      1.427117358563e-04       0.000000000000e+00       0.000000000000e+00
      1.536895565097e-04       0.000000000000e+00       0.000000000000e+00
      1.646674012941e-04       0.000000000000e+00       0.000000000000e+00
      1.756451560189e-04       0.000000000000e+00       0.000000000000e+00
      1.866232468490e-04       0.000000000000e+00       0.000000000000e+00
      1.976000833155e-04       0.000000000000e+00       0.000000000000e+00
      2.085816011324e-04       0.000000000000e+00       0.000000000000e+00
      2.195456479139e-04       0.000000000000e+00       0.000000000000e+00
      2.305748974862e-04       0.000000000000e+00       0.000000000000e+00
      2.413608069283e-04       0.000000000000e+00       0.000000000000e+00
      2.530548740989e-04       0.000000000000e+00       0.000000000000e+00
      2.613596504926e-04       0.000000000000e+00       0.000000000000e+00
      2.823134322654e-04       0.000000000000e+00       0.000000000000e+00
      0.000000000000e+00       0.000000000000e+00       0.000000000000e+00
      1.097782575227e-05       0.000000000000e+00       0.000000000000e+00
      2.195565150453e-05       0.000000000000e+00       0.000000000000e+00
      3.293347725686e-05       0.000000000000e+00       0.000000000000e+00
      4.391130300907e-05       0.000000000000e+00       0.000000000000e+00
      5.488912876128e-05       0.000000000000e+00       0.000000000000e+00
      6.586695451372e-05       0.000000000000e+00       0.000000000000e+00
      7.684478026615e-05       0.000000000000e+00       0.000000000000e+00
      8.782260601681e-05       0.000000000000e+00       0.000000000000e+00
      9.880043177635e-05       0.000000000000e+00       0.000000000000e+00
      1.097782575021e-04       0.000000000000e+00       0.000000000000e+00
      1.207560833523e-04       0.000000000000e+00       0.000000000000e+00
      1.317339087388e-04       0.000000000000e+00       0.000000000000e+00
      1.427117358563e-04       0.000000000000e+00       0.000000000000e+00
      1.536895565089e-04       0.000000000000e+00       0.000000000000e+00
      1.646674012932e-04       0.000000000000e+00       0.000000000000e+00
      1.756451560198e-04       0.000000000000e+00       0.000000000000e+00
      1.866232468481e-04       0.000000000000e+00       0.000000000000e+00
      1.976000833155e-04       0.000000000000e+00       0.000000000000e+00
      2.085816011341e-04       0.000000000000e+00       0.000000000000e+00
      2.195456479139e-04       0.000000000000e+00       0.000000000000e+00
      2.305748974862e-04       0.000000000000e+00       0.000000000000e+00
      2.413608069283e-04       0.000000000000e+00       0.000000000000e+00
      2.530548740989e-04       0.000000000000e+00       0.000000000000e+00
      2.613596504890e-04       0.000000000000e+00       0.000000000000e+00
      2.823134322671e-04       0.000000000000e+00       0.000000000000e+00
      0.000000000000e+00       0.000000000000e+00       0.000000000000e+00
      1.097782575232e-05       0.000000000000e+00       0.000000000000e+00
      2.195565150442e-05       0.000000000000e+00       0.000000000000e+00
      3.293347725686e-05       0.000000000000e+00       0.000000000000e+00
      4.391130300885e-05       0.000000000000e+00       0.000000000000e+00
      5.488912876084e-05       0.000000000000e+00       0.000000000000e+00
      6.586695451372e-05       0.000000000000e+00       0.000000000000e+00
      7.684478026659e-05       0.000000000000e+00       0.000000000000e+00
      8.782260601681e-05       0.000000000000e+00       0.000000000000e+00
      9.880043177590e-05       0.000000000000e+00       0.000000000000e+00
      1.097782575021e-04       0.000000000000e+00       0.000000000000e+00
      1.207560833523e-04       0.000000000000e+00       0.000000000000e+00
      1.317339087388e-04       0.000000000000e+00       0.000000000000e+00
      1.427117358572e-04       0.000000000000e+00       0.000000000000e+00
      1.536895565097e-04       0.000000000000e+00       0.000000000000e+00
      1.646674012941e-04       0.000000000000e+00       0.000000000000e+00
      1.756451560189e-04       0.000000000000e+00       0.000000000000e+00
      1.866232468490e-04       0.000000000000e+00       0.000000000000e+00
      1.976000833146e-04       0.000000000000e+00       0.000000000000e+00
      2.085816011324e-04       0.000000000000e+00       0.000000000000e+00
      2.195456479139e-04       0.000000000000e+00       0.000000000000e+00
      2.305748974862e-04       0.000000000000e+00       0.000000000000e+00
      2.413608069300e-04       0.000000000000e+00       0.000000000000e+00
      2.530548740989e-04       0.000000000000e+00       0.000000000000e+00
      2.613596504908e-04       0.000000000000e+00       0.000000000000e+00
      2.823134322671e-04       0.000000000000e+00       0.000000000000e+00
      0.000000000000e+00       0.000000000000e+00       0.000000000000e+00
      1.097782575221e-05       0.000000000000e+00       0.000000000000e+00
      2.195565150453e-05       0.000000000000e+00       0.000000000000e+00
      3.293347725686e-05       0.000000000000e+00       0.000000000000e+00
      4.391130300885e-05       0.000000000000e+00       0.000000000000e+00
      5.488912876128e-05       0.000000000000e+00       0.000000000000e+00
      6.586695451372e-05       0.000000000000e+00       0.000000000000e+00
      7.684478026615e-05       0.000000000000e+00       0.000000000000e+00
      8.782260601636e-05       0.000000000000e+00       0.000000000000e+00
      9.880043177590e-05       0.000000000000e+00       0.000000000000e+00
      1.097782575021e-04       0.000000000000e+00       0.000000000000e+00
      1.207560833523e-04       0.000000000000e+00       0.000000000000e+00
      1.317339087379e-04       0.000000000000e+00       0.000000000000e+00
      1.427117358563e-04       0.000000000000e+00       0.000000000000e+00
      1.536895565097e-04       0.000000000000e+00       0.000000000000e+00
      1.646674012932e-04       0.000000000000e+00       0.000000000000e+00
      1.756451560189e-04       0.000000000000e+00       0.000000000000e+00
      1.866232468499e-04       0.000000000000e+00       0.000000000000e+00
      1.976000833146e-04       0.000000000000e+00       0.000000000000e+00
      2.085816011324e-04       0.000000000000e+00       0.000000000000e+00
      2.195456479139e-04       0.000000000000e+00       0.000000000000e+00
      2.305748974862e-04       0.000000000000e+00       0.000000000000e+00
      2.413608069283e-04       0.000000000000e+00       0.000000000000e+00
      2.530548740989e-04       0.000000000000e+00       0.000000000000e+00
      2.613596504908e-04       0.000000000000e+00       0.000000000000e+00
      2.823134322654e-04       0.000000000000e+00       0.000000000000e+00
      0.000000000000e+00       0.000000000000e+00       0.000000000000e+00
      1.097782575221e-05       0.000000000000e+00       0.000000000000e+00
      2.195565150453e-05       0.000000000000e+00       0.000000000000e+00
      3.293347725686e-05       0.000000000000e+00       0.000000000000e+00
      4.391130300907e-05       0.000000000000e+00       0.000000000000e+00
      5.488912876128e-05       0.000000000000e+00       0.000000000000e+00
      6.586695451327e-05       0.000000000000e+00       0.000000000000e+00
      7.684478026659e-05       0.000000000000e+00       0.000000000000e+00
      8.782260601636e-05       0.000000000000e+00       0.000000000000e+00
      9.880043177635e-05       0.000000000000e+00       0.000000000000e+00
      1.097782575012e-04       0.000000000000e+00       0.000000000000e+00
      1.207560833523e-04       0.000000000000e+00       0.000000000000e+00
      1.317339087388e-04       0.000000000000e+00       0.000000000000e+00
      1.427117358572e-04       0.000000000000e+00       0.000000000000e+00
      1.536895565097e-04       0.000000000000e+00       0.000000000000e+00
      1.646674012941e-04       0.000000000000e+00       0.000000000000e+00
      1.756451560189e-04       0.000000000000e+00       0.000000000000e+00
      1.866232468490e-04       0.000000000000e+00       0.000000000000e+00
      1.976000833155e-04       0.000000000000e+00       0.000000000000e+00
      2.085816011306e-04       0.000000000000e+00       0.000000000000e+00
      2.195456479139e-04       0.000000000000e+00       0.000000000000e+00
      2.305748974862e-04       0.000000000000e+00       0.000000000000e+00
      2.413608069283e-04       0.000000000000e+00       0.000000000000e+00
      2.530548740989e-04       0.000000000000e+00       0.000000000000e+00
      2.613596504890e-04       0.000000000000e+00       0.000000000000e+00
      2.823134322671e-04       0.000000000000e+00       0.000000000000e+00
      0.000000000000e+00       0.000000000000e+00       0.000000000000e+00
      1.097782575227e-05       0.000000000000e+00       0.000000000000e+00
      2.195565150453e-05       0.000000000000e+00       0.000000000000e+00
      3.293347725686e-05       0.000000000000e+00       0.000000000000e+00
      4.391130300885e-05       0.000000000000e+00       0.000000000000e+00
      5.488912876173e-05       0.000000000000e+00       0.000000000000e+00
      6.586695451327e-05       0.000000000000e+00       0.000000000000e+00
      7.684478026659e-05       0.000000000000e+00       0.000000000000e+00
      8.782260601681e-05       0.000000000000e+00       0.000000000000e+00
      9.880043177590e-05       0.000000000000e+00       0.000000000000e+00
      1.097782575012e-04       0.000000000000e+00       0.000000000000e+00
      1.207560833523e-04       0.000000000000e+00       0.000000000000e+00
      1.317339087388e-04       0.000000000000e+00       0.000000000000e+00
      1.427117358572e-04       0.000000000000e+00       0.000000000000e+00
      1.536895565097e-04       0.000000000000e+00       0.000000000000e+00
      1.646674012941e-04       0.000000000000e+00       0.000000000000e+00
      1.756451560189e-04       0.000000000000e+00       0.000000000000e+00
      1.866232468499e-04       0.000000000000e+00       0.000000000000e+00
      1.976000833155e-04       0.000000000000e+00       0.000000000000e+00
      2.085816011341e-04       0.000000000000e+00       0.000000000000e+00
      2.195456479139e-04       0.000000000000e+00       0.000000000000e+00
      2.305748974862e-04       0.000000000000e+00       0.000000000000e+00
      2.413608069283e-04       0.000000000000e+00       0.000000000000e+00
      2.530548740989e-04       0.000000000000e+00       0.000000000000e+00
      2.613596504890e-04       0.000000000000e+00       0.000000000000e+00
      2.823134322671e-04       0.000000000000e+00       0.000000000000e+00
      0.000000000000e+00       0.000000000000e+00       0.000000000000e+00
      1.097782575227e-05       0.000000000000e+00       0.000000000000e+00
      2.195565150465e-05       0.000000000000e+00       0.000000000000e+00
      3.293347725686e-05       0.000000000000e+00       0.000000000000e+00
      4.391130300907e-05       0.000000000000e+00       0.000000000000e+00
      5.488912876128e-05       0.000000000000e+00       0.000000000000e+00
      6.586695451372e-05       0.000000000000e+00       0.000000000000e+00
      7.684478026615e-05       0.000000000000e+00       0.000000000000e+00
      8.782260601681e-05       0.000000000000e+00       0.000000000000e+00
      9.880043177635e-05       0.000000000000e+00       0.000000000000e+00
      1.097782575021e-04       0.000000000000e+00       0.000000000000e+00
      1.207560833523e-04       0.000000000000e+00       0.000000000000e+00
      1.317339087379e-04       0.000000000000e+00       0.000000000000e+00
      1.427117358572e-04       0.000000000000e+00       0.000000000000e+00
      1.536895565097e-04       0.000000000000e+00       0.000000000000e+00
      1.646674012941e-04       0.000000000000e+00       0.000000000000e+00
      1.756451560189e-04       0.000000000000e+00       0.000000000000e+00
      1.866232468490e-04       0.000000000000e+00       0.000000000000e+00
      1.976000833155e-04       0.000000000000e+00       0.000000000000e+00
      2.085816011332e-04       0.000000000000e+00       0.000000000000e+00
      2.195456479139e-04       0.000000000000e+00       0.000000000000e+00
      2.305748974862e-04       0.000000000000e+00       0.000000000000e+00
      2.413608069300e-04       0.000000000000e+00       0.000000000000e+00
      2.530548740989e-04       0.000000000000e+00       0.000000000000e+00
      2.613596504908e-04       0.000000000000e+00       0.000000000000e+00
      2.823134322671e-04       0.000000000000e+00       0.000000000000e+00
      0.000000000000e+00       0.000000000000e+00       0.000000000000e+00
      1.097782575227e-05       0.000000000000e+00       0.000000000000e+00
      2.195565150453e-05       0.000000000000e+00       0.000000000000e+00
      3.293347725686e-05       0.000000000000e+00       0.000000000000e+00
      4.391130300885e-05       0.000000000000e+00       0.000000000000e+00
      5.488912876128e-05       0.000000000000e+00       0.000000000000e+00
      6.586695451327e-05       0.000000000000e+00       0.000000000000e+00
      7.684478026704e-05       0.000000000000e+00       0.000000000000e+00
      8.782260601681e-05       0.000000000000e+00       0.000000000000e+00
      9.880043177635e-05       0.000000000000e+00       0.000000000000e+00
      1.097782575012e-04       0.000000000000e+00       0.000000000000e+00
      1.207560833523e-04       0.000000000000e+00       0.000000000000e+00
      1.317339087388e-04       0.000000000000e+00       0.000000000000e+00
      1.427117358572e-04       0.000000000000e+00       0.000000000000e+00
      1.536895565097e-04       0.000000000000e+00       0.000000000000e+00
      1.646674012941e-04       0.000000000000e+00       0.000000000000e+00
      1.756451560189e-04       0.000000000000e+00       0.000000000000e+00
      1.866232468490e-04       0.000000000000e+00       0.000000000000e+00
      1.976000833164e-04       0.000000000000e+00       0.000000000000e+00
      2.085816011324e-04       0.000000000000e+00       0.000000000000e+00
      2.195456479139e-04       0.000000000000e+00       0.000000000000e+00
      2.305748974862e-04       0.000000000000e+00       0.000000000000e+00
      2.413608069283e-04       0.000000000000e+00       0.000000000000e+00
      2.530548740971e-04       0.000000000000e+00       0.000000000000e+00
      2.613596504908e-04       0.000000000000e+00       0.000000000000e+00
      2.823134322671e-04       0.000000000000e+00       0.000000000000e+00
      0.000000000000e+00       0.000000000000e+00       0.000000000000e+00
      1.097782575232e-05       0.000000000000e+00       0.000000000000e+00
      2.195565150453e-05       0.000000000000e+00       0.000000000000e+00
      3.293347725686e-05       0.000000000000e+00       0.000000000000e+00
      4.391130300885e-05       0.000000000000e+00       0.000000000000e+00
      5.488912876173e-05       0.000000000000e+00       0.000000000000e+00