# vtk DataFile Version 3.0
tension_beam_2_materials_C0_01.vtk
ASCII
DATASET UNSTRUCTURED_GRID
FIELD FieldData 2
TIME 1 1 double
0.000000e+00
CYCLE 1 1 int
1
POINTS 1352 double
      0.000000000000e+00       0.000000000000e+00       0.000000000000e+00
      4.000000000000e-01       0.000000000000e+00       0.000000000000e+00
      8.000000000000e-01       0.000000000000e+00       0.000000000000e+00
      1.200000000000e+00       0.000000000000e+00       0.000000000000e+00
      1.600000000000e+00       0.000000000000e+00       0.000000000000e+00
      2.000000000000e+00       0.000000000000e+00       0.000000000000e+00
      2.400000000000e+00       0.000000000000e+00       0.000000000000e+00
      2.800000000000e+00       0.000000000000e+00       0.000000000000e+00
      3.200000000000e+00       0.000000000000e+00       0.000000000000e+00
      3.600000000000e+00       0.000000000000e+00       0.000000000000e+00
      4.000000000000e+00       0.000000000000e+00       0.000000000000e+00
      4.400000000000e+00       0.000000000000e+00       0.000000000000e+00
      4.800000000000e+00       0.000000000000e+00       0.000000000000e+00
      5.200000000000e+00       0.000000000000e+00       0.000000000000e+00
      5.600000000000e+00       0.000000000000e+00       0.000000000000e+00
      6.000000000000e+00       0.000000000000e+00       0.000000000000e+00
      6.400000000000e+00       0.000000000000e+00       0.000000000000e+00
      6.800000000000e+00       0.000000000000e+00       0.000000000000e+00
      7.200000000000e+00       0.000000000000e+00       0.000000000000e+00
      7.600000000000e+00       0.000000000000e+00       0.000000000000e+00
      8.000000000000e+00       0.000000000000e+00       0.000000000000e+00
      8.400000000000e+00       0.000000000000e+00       0.000000000000e+00
      8.800000000000e+00       0.000000000000e+00       0.000000000000e+00
      9.200000000000e+00       0.000000000000e+00       0.000000000000e+00
      9.600000000000e+00       0.000000000000e+00       0.000000000000e+00
      1.000000000000e+01       0.000000000000e+00       0.000000000000e+00
      0.000000000000e+00       8.000000000000e-02       0.000000000000e+00
      4.000000000000e-01       8.000000000000e-02       0.000000000000e+00
      8.000000000000e-01       8.000000000000e-02       0.000000000000e+00
      1.200000000000e+00       8.000000000000e-02       0.000000000000e+00
      1.600000000000e+00       8.000000000000e-02       0.000000000000e+00
      2.000000000000e+00       8.000000000000e-02       0.000000000000e+00
      2.400000000000e+00       8.000000000000e-02       0.000000000000e+00
      2.800000000000e+00       8.000000000000e-02       0.000000000000e+00
      3.200000000000e+00       8.000000000000e-02       0.000000000000e+00
      3.600000000000e+00       8.000000000000e-02       0.000000000000e+00
      4.000000000000e+00       8.000000000000e-02       0.000000000000e+00
      4.400000000000e+00       8.000000000000e-02       0.000000000000e+00
      4.800000000000e+00       8.000000000000e-02       0.000000000000e+00
      5.200000000000e+00       8.000000000000e-02       0.000000000000e+00
      5.600000000000e+00       8.000000000000e-02       0.000000000000e+00
      6.000000000000e+00       8.000000000000e-02       0.000000000000e+00
      6.400000000000e+00       8.000000000000e-02       0.000000000000e+00
      6.800000000000e+00       8.000000000000e-02       0.000000000000e+00
      7.200000000000e+00       8.000000000000e-02       0.000000000000e+00
      7.600000000000e+00       8.000000000000e-02       0.000000000000e+00
      8.000000000000e+00       8.000000000000e-02       0.000000000000e+00
      8.400000000000e+00       8.000000000000e-02       0.000000000000e+00
      8.800000000000e+00       8.000000000000e-02       0.000000000000e+00
      9.200000000000e+00       8.000000000000e-02       0.000000000000e+00
      9.600000000000e+00       8.000000000000e-02       0.000000000000e+00
      1.000000000000e+01       8.000000000000e-02       0.000000000000e+00
      0.000000000000e+00       1.600000000000e-01       0.000000000000e+00
      4.000000000000e-01       1.600000000000e-01       0.000000000000e+00
      8.000000000000e-01       1.600000000000e-01       0.000000000000e+00
      1.200000000000e+00       1.600000000000e-01       0.000000000000e+00
      1.600000000000e+00       1.600000000000e-01       0.000000000000e+00
      2.000000000000e+00       1.600000000000e-01       0.000000000000e+00
      2.400000000000e+00       1.600000000000e-01       0.000000000000e+00
      2.800000000000e+00       1.600000000000e-01       0.000000000000e+00
      3.200000000000e+00       1.600000000000e-01       0.000000000000e+00
      3.600000000000e+00       1.600000000000e-01       0.000000000000e+00
      4.000000000000e+00       1.600000000000e-01       0.000000000000e+00
      4.400000000000e+00       1.600000000000e-01       0.000000000000e+00
      4.800000000000e+00       1.600000000000e-01       0.000000000000e+00
      5.200000000000e+00       1.600000000000e-01       0.000000000000e+00
      5.600000000000e+00       1.600000000000e-01       0.000000000000e+00
      6.000000000000e+00       1.600000000000e-01       0.000000000000e+00
      6.400000000000e+00       1.600000000000e-01       0.000000000000e+00
      6.800000000000e+00       1.600000000000e-01       0.000000000000e+00
      7.200000000000e+00       1.600000000000e-01       0.000000000000e+00
      7.600000000000e+00       1.600000000000e-01       0.000000000000e+00
      8.000000000000e+00       1.600000000000e-01       0.000000000000e+00
      8.400000000000e+00       1.600000000000e-01       0.000000000000e+00
      8.800000000000e+00       1.600000000000e-01       0.000000000000e+00
      9.200000000000e+00       1.600000000000e-01       0.000000000000e+00
      9.600000000000e+00       1.600000000000e-01       0.000000000000e+00
      1.000000000000e+01       1.600000000000e-01       0.000000000000e+00
      0.000000000000e+00       2.400000000000e-01       0.000000000000e+00
      4.000000000000e-01       2.400000000000e-01       0.000000000000e+00
      8.000000000000e-01       2.400000000000e-01       0.000000000000e+00
      1.200000000000e+00       2.400000000000e-01       0.000000000000e+00
      1.600000000000e+00       2.400000000000e-01       0.000000000000e+00
      2.000000000000e+00       2.400000000000e-01       0.000000000000e+00
      2.400000000000e+00       2.400000000000e-01       0.000000000000e+00
      2.800000000000e+00       2.400000000000e-01       0.000000000000e+00
      3.200000000000e+00       2.400000000000e-01       0.000000000000e+00
      3.600000000000e+00       2.400000000000e-01       0.000000000000e+00
      4.000000000000e+00       2.400000000000e-01       0.000000000000e+00
      4.400000000000e+00       2.400000000000e-01       0.000000000000e+00
      4.800000000000e+00       2.400000000000e-01       0.000000000000e+00
      5.200000000000e+00       2.400000000000e-01       0.000000000000e+00
      5.600000000000e+00       2.400000000000e-01       0.000000000000e+00
      6.000000000000e+00       2.400000000000e-01       0.000000000000e+00
      6.400000000000e+00       2.400000000000e-01       0.000000000000e+00
      6.800000000000e+00       2.400000000000e-01       0.000000000000e+00
      7.200000000000e+00       2.400000000000e-01       0.000000000000e+00
      7.600000000000e+00       2.400000000000e-01       0.000000000000e+00
      8.000000000000e+00       2.400000000000e-01       0.000000000000e+00
      8.400000000000e+00       2.400000000000e-01       0.000000000000e+00
      8.800000000000e+00       2.400000000000e-01       0.000000000000e+00
      9.200000000000e+00       2.400000000000e-01       0.000000000000e+00
      9.600000000000e+00       2.400000000000e-01       0.000000000000e+00
      1.000000000000e+01       2.400000000000e-01       0.000000000000e+00
      0.000000000000e+00       3.200000000000e-01       0.000000000000e+00
      4.000000000000e-01       3.200000000000e-01       0.000000000000e+00
      8.000000000000e-01       3.200000000000e-01       0.000000000000e+00
      1.200000000000e+00       3.200000000000e-01       0.000000000000e+00
      1.600000000000e+00       3.200000000000e-01       0.000000000000e+00
      2.000000000000e+00       3.200000000000e-01       0.000000000000e+00
      2.400000000000e+00       3.200000000000e-01       0.000000000000e+00
      2.800000000000e+00       3.200000000000e-01       0.000000000000e+00
      3.200000000000e+00       3.200000000000e-01       0.000000000000e+00
      3.600000000000e+00       3.200000000000e-01       0.000000000000e+00
      4.000000000000e+00       3.200000000000e-01       0.000000000000e+00
      4.400000000000e+00       3.200000000000e-01       0.000000000000e+00
      4.800000000000e+00       3.200000000000e-01       0.000000000000e+00
      5.200000000000e+00       3.200000000000e-01       0.000000000000e+00
      5.600000000000e+00       3.200000000000e-01       0.000000000000e+00
      6.000000000000e+00       3.200000000000e-01       0.000000000000e+00
      6.400000000000e+00       3.200000000000e-01       0.000000000000e+00
      6.800000000000e+00       3.200000000000e-01       0.000000000000e+00
      7.200000000000e+00       3.200000000000e-01       0.000000000000e+00
      7.600000000000e+00       3.200000000000e-01       0.000000000000e+00
      8.000000000000e+00       3.200000000000e-01       0.000000000000e+00
      8.400000000000e+00       3.200000000000e-01       0.000000000000e+00
      8.800000000000e+00       3.200000000000e-01       0.000000000000e+00
      9.200000000000e+00       3.200000000000e-01       0.000000000000e+00
      9.600000000000e+00       3.200000000000e-01       0.000000000000e+00
      1.000000000000e+01       3.200000000000e-01       0.000000000000e+00
[...]
POINT_DATA 1352
VECTORS DSPL double
      0.000000000000e+00       0.000000000000e+00       0.000000000000e+00
      0.000000000000e+00       0.000000000000e+00       0.000000000000e+00
      0.000000000000e+00       0.000000000000e+00       0.000000000000e+00
      0.000000000000e+00       0.000000000000e+00       0.000000000000e+00
      0.000000000000e+00       0.000000000000e+00       0.000000000000e+00
      0.000000000000e+00       0.000000000000e+00       0.000000000000e+00
      0.000000000000e+00       0.000000000000e+00       0.000000000000e+00
      0.000000000000e+00       0.000000000000e+00       0.000000000000e+00
      0.000000000000e+00       0.000000000000e+00       0.000000000000e+00
      0.000000000000e+00       0.000000000000e+00       0.000000000000e+00
      0.000000000000e+00       0.000000000000e+00       0.000000000000e+00
      0.000000000000e+00       0.000000000000e+00       0.000000000000e+00
      0.000000000000e+00       0.000000000000e+00       0.000000000000e+00
      0.000000000000e+00       0.000000000000e+00       0.000000000000e+00
      0.000000000000e+00       0.000000000000e+00       0.000000000000e+00
      0.000000000000e+00       0.000000000000e+00       0.000000000000e+00
      0.000000000000e+00       0.000000000000e+00       0.000000000000e+00
      0.000000000000e+00       0.000000000000e+00       0.000000000000e+00
      0.000000000000e+00       0.000000000000e+00       0.000000000000e+00
      0.000000000000e+00       0.000000000000e+00       0.000000000000e+00
      0.000000000000e+00       0.000000000000e+00       0.000000000000e+00
      0.000000000000e+00       0.000000000000e+00       0.000000000000e+00
      0.000000000000e+00       0.000000000000e+00       0.000000000000e+00
      0.000000000000e+00       0.000000000000e+00       0.000000000000e+00
      0.000000000000e+00       0.000000000000e+00       0.000000000000e+00
      0.000000000000e+00       0.000000000000e+00       0.000000000000e+00
      0.000000000000e+00       0.000000000000e+00       0.000000000000e+00
      0.000000000000e+00       0.000000000000e+00       0.000000000000e+00
      0.000000000000e+00       0.000000000000e+00       0.000000000000e+00
      0.000000000000e+00       0.000000000000e+00       0.000000000000e+00
      0.000000000000e+00       0.000000000000e+00       0.000000000000e+00
      0.000000000000e+00       0.000000000000e+00       0.000000000000e+00
      0.000000000000e+00       0.000000000000e+00       0.000000000000e+00
      0.000000000000e+00       0.000000000000e+00       0.000000000000e+00
      0.000000000000e+00       0.000000000000e+00       0.000000000000e+00
      0.000000000000e+00       0.000000000000e+00       0.000000000000e+00
      0.000000000000e+00       0.000000000000e+00       0.000000000000e+00
      0.000000000000e+00       0.000000000000e+00       0.000000000000e+00
      0.000000000000e+00       0.000000000000e+00       0.000000000000e+00
      0.000000000000e+00       0.000000000000e+00       0.000000000000e+00
      0.000000000000e+00       0.000000000000e+00       0.000000000000e+00
      0.000000000000e+00       0.000000000000e+00       0.000000000000e+00
      0.000000000000e+00       0.000000000000e+00       0.000000000000e+00
      0.000000000000e+00       0.000000000000e+00       0.000000000000e+00
      0.000000000000e+00       0.000000000000e+00       0.000000000000e+00
      0.000000000000e+00       0.000000000000e+00       0.000000000000e+00
      0.000000000000e+00       0.000000000000e+00       0.000000000000e+00
      0.000000000000e+00       0.000000000000e+00       0.000000000000e+00
      0.000000000000e+00       0.000000000000e+00       0.000000000000e+00
      0.000000000000e+00       0.000000000000e+00       0.000000000000e+00
      0.000000000000e+00       0.000000000000e+00       0.000000000000e+00
      0.000000000000e+00       0.000000000000e+00       0.000000000000e+00
      0.000000000000e+00       0.000000000000e+00       0.000000000000e+00
      0.000000000000e+00       0.000000000000e+00       0.000000000000e+00
      0.000000000000e+00       0.000000000000e+00       0.000000000000e+00
      0.000000000000e+00       0.000000000000e+00       0.000000000000e+00
      0.000000000000e+00       0.000000000000e+00       0.000000000000e+00
      0.000000000000e+00       0.000000000000e+00       0.000000000000e+00
      0.000000000000e+00       0.000000000000e+00       0.000000000000e+00
      0.000000000000e+00       0.000000000000e+00       0.000000000000e+00
      0.000000000000e+00       0.000000000000e+00       0.000000000000e+00
      0.000000000000e+00       0.000000000000e+00       0.000000000000e+00
      0.000000000000e+00       0.000000000000e+00       0.000000000000e+00
      0.000000000000e+00       0.000000000000e+00       0.000000000000e+00
      0.000000000000e+00       0.000000000000e+00       0.000000000000e+00
      0.000000000000e+00       0.000000000000e+00       0.000000000000e+00
      0.000000000000e+00       0.000000000000e+00       0.000000000000e+00
      0.000000000000e+00       0.000000000000e+00       0.000000000000e+00
      0.000000000000e+00       0.000000000000e+00       0.000000000000e+00
      0.000000000000e+00       0.000000000000e+00       0.000000000000e+00
      0.000000000000e+00       0.000000000000e+00       0.000000000000e+00
      0.000000000000e+00       0.000000000000e+00       0.000000000000e+00
      0.000000000000e+00       0.000000000000e+00       0.000000000000e+00
      0.000000000000e+00       0.000000000000e+00       0.000000000000e+00
      0.000000000000e+00       0.000000000000e+00       0.000000000000e+00
      0.000000000000e+00       0.000000000000e+00       0.000000000000e+00
      0.000000000000e+00       0.000000000000e+00       0.000000000000e+00
      0.000000000000e+00       0.000000000000e+00       0.000000000000e+00
      0.000000000000e+00       0.000000000000e+00       0.000000000000e+00
      0.000000000000e+00       0.000000000000e+00       0.000000000000e+00
      0.000000000000e+00       0.000000000000e+00       0.000000000000e+00
      0.000000000000e+00       0.000000000000e+00       0.000000000000e+00
      0.000000000000e+00       0.000000000000e+00       0.000000000000e+00
      0.000000000000e+00       0.000000000000e+00       0.000000000000e+00
      0.000000000000e+00       0.000000000000e+00       0.000000000000e+00
      0.000000000000e+00       0.000000000000e+00       0.000000000000e+00
      0.000000000000e+00       0.000000000000e+00       0.000000000000e+00
      0.000000000000e+00       0.000000000000e+00       0.000000000000e+00
      0.000000000000e+00       0.000000000000e+00       0.000000000000e+00
      0.000000000000e+00       0.000000000000e+00       0.000000000000e+00
      0.000000000000e+00       0.000000000000e+00       0.000000000000e+00
      0.000000000000e+00       0.000000000000e+00       0.000000000000e+00
      0.000000000000e+00       0.000000000000e+00       0.000000000000e+00
      0.000000000000e+00       0.000000000000e+00       0.000000000000e+00
      0.000000000000e+00       0.000000000000e+00       0.000000000000e+00
      0.000000000000e+00       0.000000000000e+00       0.000000000000e+00
      0.000000000000e+00       0.000000000000e+00       0.000000000000e+00
      0.000000000000e+00       0.000000000000e+00       0.000000000000e+00
      0.000000000000e+00       0.000000000000e+00       0.000000000000e+00
      0.000000000000e+00       0.000000000000e+00       0.000000000000e+00
      0.000000000000e+00       0.000000000000e+00       0.000000000000e+00
      0.000000000000e+00       0.000000000000e+00       0.000000000000e+00
      0.000000000000e+00       0.000000000000e+00       0.000000000000e+00
      0.000000000000e+00       0.000000000000e+00       0.000000000000e+00
      0.000000000000e+00       0.000000000000e+00       0.000000000000e+00
      0.000000000000e+00       0.000000000000e+00       0.000000000000e+00
      0.000000000000e+00       0.000000000000e+00       0.000000000000e+00
      0.000000000000e+00       0.000000000000e+00       0.000000000000e+00
      0.000000000000e+00       0.000000000000e+00       0.000000000000e+00
      0.000000000000e+00       0.000000000000e+00       0.000000000000e+00
      0.000000000000e+00       0.000000000000e+00       0.000000000000e+00
      0.000000000000e+00       0.000000000000e+00       0.000000000000e+00
      0.000000000000e+00       0.000000000000e+00       0.000000000000e+00
      0.000000000000e+00       0.000000000000e+00       0.000000000000e+00
      0.000000000000e+00       0.000000000000e+00       0.000000000000e+00
      0.000000000000e+00       0.000000000000e+00       0.000000000000e+00
      0.000000000000e+00       0.000000000000e+00       0.000000000000e+00
      0.000000000000e+00       0.000000000000e+00       0.000000000000e+00
      0.000000000000e+00       0.000000000000e+00       0.000000000000e+00
      0.000000000000e+00       0.000000000000e+00       0.000000000000e+00
      0.000000000000e+00       0.000000000000e+00       0.000000000000e+00
      0.000000000000e+00       0.000000000000e+00       0.000000000000e+00
      0.000000000000e+00       0.000000000000e+00       0.000000000000e+00
      0.000000000000e+00       0.000000000000e+00       0.000000000000e+00
      0.000000000000e+00       0.000000000000e+00       0.000000000000e+00
      0.000000000000e+00       0.000000000000e+00       0.000000000000e+00
      0.000000000000e+00       0.000000000000e+00       0.000000000000e+00
      0.000000000000e+00       0.000000000000e+00       0.000000000000e+00
      0.000000000000e+00       0.000000000000e+00       0.000000000000e+00
      0.000000000000e+00       0.000000000000e+00       0.000000000000e+00
      0.000000000000e+00       0.000000000000e+00       0.000000000000e+00
      0.000000000000e+00       0.000000000000e+00       0.000000000000e+00
      0.000000000000e+00       0.000000000000e+00       0.000000000000e+00
      0.000000000000e+00       0.000000000000e+00       0.000000000000e+00
      0.000000000000e+00       0.000000000000e+00       0.000000000000e+00
      0.000000000000e+00       0.000000000000e+00       0.000000000000e+00
      0.000000000000e+00       0.000000000000e+00       0.000000000000e+00
      0.000000000000e+00       0.000000000000e+00       0.000000000000e+00
      0.000000000000e+00       0.000000000000e+00       0.000000000000e+00
      0.000000000000e+00       0.000000000000e+00       0.000000000000e+00
      0.000000000000e+00       0.000000000000e+00       0.000000000000e+00
      0.000000000000e+00       0.000000000000e+00       0.000000000000e+00
      0.000000000000e+00       0.000000000000e+00       0.000000000000e+00
      0.000000000000e+00       0.000000000000e+00       0.000000000000e+00
      0.000000000000e+00       0.000000000000e+00       0.000000000000e+00
      0.000000000000e+00       0.000000000000e+00       0.000000000000e+00
      0.000000000000e+00       0.000000000000e+00       0.000000000000e+00
      0.000000000000e+00       0.000000000000e+00       0.000000000000e+00
      0.000000000000e+00       0.000000000000e+00       0.000000000000e+00
      0.000000000000e+00       0.000000000000e+00       0.000000000000e+00
      0.000000000000e+00       0.000000000000e+00       0.000000000000e+00
      0.000000000000e+00       0.000000000000e+00       0.000000000000e+00
      0.000000000000e+00       0.000000000000e+00       0.000000000000e+00
      0.000000000000e+00       0.000000000000e+00       0.000000000000e+00
      0.000000000000e+00       0.000000000000e+00       0.000000000000e+00
      0.000000000000e+00       0.000000000000e+00       0.000000000000e+00
      0.000000000000e+00       0.000000000000e+00       0.000000000000e+00
      0.000000000000e+00       0.000000000000e+00       0.000000000000e+00
      0.000000000000e+00       0.000000000000e+00       0.000000000000e+00
      0.000000000000e+00       0.000000000000e+00       0.000000000000e+00
      0.000000000000e+00       0.000000000000e+00       0.000000000000e+00
      0.000000000000e+00       0.000000000000e+00       0.000000000000e+00
      0.000000000000e+00       0.000000000000e+00       0.000000000000e+00
      0.000000000000e+00       0.000000000000e+00       0.000000000000e+00
      0.000000000000e+00       0.000000000000e+00       0.000000000000e+00
      0.000000000000e+00       0.000000000000e+00       0.000000000000e+00
      0.000000000000e+00       0.000000000000e+00       0.000000000000e+00
      0.000000000000e+00       0.000000000000e+00       0.000000000000e+00
      0.000000000000e+00       0.000000000000e+00       0.000000000000e+00
      0.000000000000e+00       0.000000000000e+00       0.000000000000e+00
      0.000000000000e+00       0.000000000000e+00       0.000000000000e+00
      0.000000000000e+00       0.000000000000e+00       0.000000000000e+00
      0.000000000000e+00       0.000000000000e+00       0.000000000000e+00
      0.000000000000e+00       0.000000000000e+00       0.000000000000e+00
      0.000000000000e+00       0.000000000000e+00       0.000000000000e+00
      0.000000000000e+00       0.000000000000e+00       0.000000000000e+00
      0.000000000000e+00       0.000000000000e+00       0.000000000000e+00
      0.000000000000e+00       0.000000000000e+00       0.000000000000e+00
      0.000000000000e+00       0.000000000000e+00       0.000000000000e+00
      0.000000000000e+00       0.000000000000e+00       0.000000000000e+00
      0.000000000000e+00       0.000000000000e+00       0.000000000000e+00
      0.000000000000e+00       0.000000000000e+00       0.000000000000e+00
      0.000000000000e+00       0.000000000000e+00       0.000000000000e+00
      0.000000000000e+00       0.000000000000e+00       0.000000000000e+00
      0.000000000000e+00       0.000000000000e+00       0.000000000000e+00
      0.000000000000e+00       0.000000000000e+00       0.000000000000e+00
      0.000000000000e+00       0.000000000000e+00       0.000000000000e+00
      0.000000000000e+00       0.000000000000e+00       0.000000000000e+00
      0.000000000000e+00       0.000000000000e+00       0.000000000000e+00
      0.000000000000e+00       0.000000000000e+00       0.000000000000e+00
      0.000000000000e+00       0.000000000000e+00       0.000000000000e+00
      0.000000000000e+00       0.000000000000e+00       0.000000000000e+00
      0.000000000000e+00       0.000000000000e+00       0.000000000000e+00
      0.000000000000e+00       0.000000000000e+00       0.000000000000e+00
      0.000000000000e+00       0.000000000000e+00       0.000000000000e+00
      0.000000000000e+00       0.000000000000e+00       0.000000000000e+00
      0.000000000000e+00       0.000000000000e+00       0.000000000000e+00
      0.000000000000e+00       0.000000000000e+00       0.000000000000e+00
      0.000000000000e+00       0.000000000000e+00       0.000000000000e+00
      0.000000000000e+00       0.000000000000e+00       0.000000000000e+00
      0.000000000000e+00       0.000000000000e+00       0.000000000000e+00
      0.000000000000e+00       0.000000000000e+00       0.000000000000e+00
      0.000000000000e+00       0.000000000000e+00       0.000000000000e+00
      0.000000000000e+00       0.000000000000e+00       0.000000000000e+00
      0.000000000000e+00       0.000000000000e+00       0.000000000000e+00
      0.000000000000e+00       0.000000000000e+00       0.000000000000e+00
      0.000000000000e+00       0.000000000000e+00       0.000000000000e+00
      0.000000000000e+00       0.000000000000e+00       0.000000000000e+00
      0.000000000000e+00       0.000000000000e+00       0.000000000000e+00
      0.000000000000e+00       0.000000000000e+00       0.000000000000e+00
      0.000000000000e+00       0.000000000000e+00       0.000000000000e+00
      0.000000000000e+00       0.000000000000e+00       0.000000000000e+00
      0.000000000000e+00       0.000000000000e+00       0.000000000000e+00
      0.000000000000e+00       0.000000000000e+00       0.000000000000e+00
      0.000000000000e+00       0.000000000000e+00       0.000000000000e+00
      0.000000000000e+00       0.000000000000e+00       0.000000000000e+00
      0.000000000000e+00       0.000000000000e+00       0.000000000000e+00
      0.000000000000e+00       0.000000000000e+00       0.000000000000e+00
      0.000000000000e+00       0.000000000000e+00       0.000000000000e+00
      0.000000000000e+00       0.000000000000e+00       0.000000000000e+00
      0.000000000000e+00       0.000000000000e+00       0.000000000000e+00
      0.000000000000e+00       0.000000000000e+00       0.000000000000e+00
      0.000000000000e+00       0.000000000000e+00       0.000000000000e+00
      0.000000000000e+00       0.000000000000e+00       0.000000000000e+00
      0.000000000000e+00       0.000000000000e+00       0.000000000000e+00
      0.000000000000e+00       0.000000000000e+00       0.000000000000e+00
      0.000000000000e+00       0.000000000000e+00       0.000000000000e+00
      0.000000000000e+00       0.000000000000e+00       0.000000000000e+00
      0.000000000000e+00       0.000000000000e+00       0.000000000000e+00
      0.000000000000e+00       0.000000000000e+00       0.000000000000e+00
      0.000000000000e+00       0.000000000000e+00       0.000000000000e+00
      0.000000000000e+00       0.000000000000e+00       0.000000000000e+00
      0.000000000000e+00       0.000000000000e+00       0.000000000000e+00
      0.000000000000e+00       0.000000000000e+00       0.000000000000e+00
      0.000000000000e+00       0.000000000000e+00       0.000000000000e+00
      0.000000000000e+00       0.000000000000e+00       0.000000000000e+00
      0.000000000000e+00       0.000000000000e+00       0.000000000000e+00
      0.000000000000e+00       0.000000000000e+00       0.000000000000e+00
      0.000000000000e+00       0.000000000000e+00       0.000000000000e+00
      0.000000000000e+00       0.000000000000e+00       0.000000000000e+00
      0.000000000000e+00       0.000000000000e+00       0.000000000000e+00
      0.000000000000e+00       0.000000000000e+00       0.000000000000e+00
      0.000000000000e+00       0.000000000000e+00       0.000000000000e+00
      0.000000000000e+00       0.000000000000e+00       0.000000000000e+00
      0.000000000000e+00       0.000000000000e+00       0.000000000000e+00
      0.000000000000e+00       0.000000000000e+00       0.000000000000e+00
      0.000000000000e+00       0.000000000000e+00       0.000000000000e+00
      0.000000000000e+00       0.000000000000e+00       0.000000000000e+00
      0.000000000000e+00       0.000000000000e+00       0.000000000000e+00
      0.000000000000e+00       0.000000000000e+00       0.000000000000e+00
      0.000000000000e+00       0.000000000000e+00       0.000000000000e+00
      0.000000000000e+00       0.000000000000e+00       0.000000000000e+00
      0.000000000000e+00       0.000000000000e+00       0.000000000000e+00
      0.000000000000e+00       0.000000000000e+00       0.000000000000e+00
      0.000000000000e+00       0.000000000000e+00       0.000000000000e+00
      0.000000000000e+00       0.000000000000e+00       0.000000000000e+00
      0.000000000000e+00       0.000000000000e+00       0.000000000000e+00
      0.000000000000e+00       0.000000000000e+00       0.000000000000e+00
      0.000000000000e+00       0.000000000000e+00       0.000000000000e+00
      0.000000000000e+00       0.000000000000e+00       0.000000000000e+00
      0.000000000000e+00       0.000000000000e+00       0.000000000000e+00
      0.000000000000e+00       0.000000000000e+00       0.000000000000e+00
      0.000000000000e+00       0.000000000000e+00       0.000000000000e+00
      0.000000000000e+00       0.000000000000e+00       0.000000000000e+00
      0.000000000000e+00       0.000000000000e+00       0.000000000000e+00
      0.000000000000e+00       0.000000000000e+00       0.000000000000e+00