# vtk DataFile Version 3.0
tension_beam_2_materials_C0_02.vtk
ASCII
DATASET UNSTRUCTURED_GRID
FIELD FieldData 2
TIME 1 1 double
1.000000e+00
CYCLE 1 1 int
2
POINTS 1352 double
      0.000000000000e+00       0.000000000000e+00       0.000000000000e+00
      4.000000000000e-01       0.000000000000e+00       0.000000000000e+00
      8.000000000000e-01       0.000000000000e+00       0.000000000000e+00
      1.200000000000e+00       0.000000000000e+00       0.000000000000e+00
      1.600000000000e+00       0.000000000000e+00       0.000000000000e+00
      2.000000000000e+00       0.000000000000e+00       0.000000000000e+00
      2.400000000000e+00       0.000000000000e+00       0.000000000000e+00
      2.800000000000e+00       0.000000000000e+00       0.000000000000e+00
      3.200000000000e+00       0.000000000000e+00       0.000000000000e+00
      3.600000000000e+00       0.000000000000e+00       0.000000000000e+00
      4.000000000000e+00       0.000000000000e+00       0.000000000000e+00
      4.400000000000e+00       0.000000000000e+00       0.000000000000e+00
      4.800000000000e+00       0.000000000000e+00       0.000000000000e+00
      5.200000000000e+00       0.000000000000e+00       0.000000000000e+00
      5.600000000000e+00       0.000000000000e+00       0.000000000000e+00
      6.000000000000e+00       0.000000000000e+00       0.000000000000e+00
      6.400000000000e+00       0.000000000000e+00       0.000000000000e+00
      6.800000000000e+00       0.000000000000e+00       0.000000000000e+00
      7.200000000000e+00       0.000000000000e+00       0.000000000000e+00
      7.600000000000e+00       0.000000000000e+00       0.000000000000e+00
      8.000000000000e+00       0.000000000000e+00       0.000000000000e+00
      8.400000000000e+00       0.000000000000e+00       0.000000000000e+00
      8.800000000000e+00       0.000000000000e+00       0.000000000000e+00
      9.200000000000e+00       0.000000000000e+00       0.000000000000e+00
      9.600000000000e+00       0.000000000000e+00       0.000000000000e+00
      1.000000000000e+01       0.000000000000e+00       0.000000000000e+00
      0.000000000000e+00       8.000000000000e-02       0.000000000000e+00
      4.000000000000e-01       8.000000000000e-02       0.000000000000e+00
      8.000000000000e-01       8.000000000000e-02       0.000000000000e+00
      1.200000000000e+00       8.000000000000e-02       0.000000000000e+00
      1.600000000000e+00       8.000000000000e-02       0.000000000000e+00
      2.000000000000e+00       8.000000000000e-02       0.000000000000e+00
      2.400000000000e+00       8.000000000000e-02       0.000000000000e+00
      2.800000000000e+00       8.000000000000e-02       0.000000000000e+00
      3.200000000000e+00       8.000000000000e-02       0.000000000000e+00
      3.600000000000e+00       8.000000000000e-02       0.000000000000e+00
      4.000000000000e+00       8.000000000000e-02       0.000000000000e+00
      4.400000000000e+00       8.000000000000e-02       0.000000000000e+00
      4.800000000000e+00       8.000000000000e-02       0.000000000000e+00
      5.200000000000e+00       8.000000000000e-02       0.000000000000e+00
      5.600000000000e+00       8.000000000000e-02       0.000000000000e+00
      6.000000000000e+00       8.000000000000e-02       0.000000000000e+00
      6.400000000000e+00       8.000000000000e-02       0.000000000000e+00
      6.800000000000e+00       8.000000000000e-02       0.000000000000e+00
      7.200000000000e+00       8.000000000000e-02       0.000000000000e+00
      7.600000000000e+00       8.000000000000e-02       0.000000000000e+00
      8.000000000000e+00       8.000000000000e-02       0.000000000000e+00
      8.400000000000e+00       8.000000000000e-02       0.000000000000e+00
      8.800000000000e+00       8.000000000000e-02       0.000000000000e+00
      9.200000000000e+00       8.000000000000e-02       0.000000000000e+00
      9.600000000000e+00       8.000000000000e-02       0.000000000000e+00
      1.000000000000e+01       8.000000000000e-02       0.000000000000e+00
      0.000000000000e+00       1.600000000000e-01       0.000000000000e+00
      4.000000000000e-01       1.600000000000e-01       0.000000000000e+00
      8.000000000000e-01       1.600000000000e-01       0.000000000000e+00
      1.200000000000e+00       1.600000000000e-01       0.000000000000e+00
      1.600000000000e+00       1.600000000000e-01       0.000000000000e+00
      2.000000000000e+00       1.600000000000e-01       0.000000000000e+00
      2.400000000000e+00       1.600000000000e-01       0.000000000000e+00
      2.800000000000e+00       1.600000000000e-01       0.000000000000e+00
      3.200000000000e+00       1.600000000000e-01       0.000000000000e+00
      3.600000000000e+00       1.600000000000e-01       0.000000000000e+00
      4.000000000000e+00       1.600000000000e-01       0.000000000000e+00
      4.400000000000e+00       1.600000000000e-01       0.000000000000e+00
      4.800000000000e+00       1.600000000000e-01       0.000000000000e+00
      5.200000000000e+00       1.600000000000e-01       0.000000000000e+00
      5.600000000000e+00       1.600000000000e-01       0.000000000000e+00
      6.000000000000e+00       1.600000000000e-01       0.000000000000e+00
      6.400000000000e+00       1.600000000000e-01       0.000000000000e+00
      6.800000000000e+00       1.600000000000e-01       0.000000000000e+00
      7.200000000000e+00       1.600000000000e-01       0.000000000000e+00
      7.600000000000e+00       1.600000000000e-01       0.000000000000e+00
      8.000000000000e+00       1.600000000000e-01       0.000000000000e+00
      8.400000000000e+00       1.600000000000e-01       0.000000000000e+00
      8.800000000000e+00       1.600000000000e-01       0.000000000000e+00
      9.200000000000e+00       1.600000000000e-01       0.000000000000e+00
      9.600000000000e+00       1.600000000000e-01       0.000000000000e+00
      1.000000000000e+01       1.600000000000e-01       0.000000000000e+00
      0.000000000000e+00       2.400000000000e-01       0.000000000000e+00
      4.000000000000e-01       2.400000000000e-01       0.000000000000e+00
      8.000000000000e-01       2.400000000000e-01       0.000000000000e+00
      1.200000000000e+00       2.400000000000e-01       0.000000000000e+00
      1.600000000000e+00       2.400000000000e-01       0.000000000000e+00
      2.000000000000e+00       2.400000000000e-01       0.000000000000e+00
      2.400000000000e+00       2.400000000000e-01       0.000000000000e+00
      2.800000000000e+00       2.400000000000e-01       0.000000000000e+00
      3.200000000000e+00       2.400000000000e-01       0.000000000000e+00
      3.600000000000e+00       2.400000000000e-01       0.000000000000e+00
      4.000000000000e+00       2.400000000000e-01       0.000000000000e+00
      4.400000000000e+00       2.400000000000e-01       0.000000000000e+00
      4.800000000000e+00       2.400000000000e-01       0.000000000000e+00
      5.200000000000e+00       2.400000000000e-01       0.000000000000e+00
      5.600000000000e+00       2.400000000000e-01       0.000000000000e+00
      6.000000000000e+00       2.400000000000e-01       0.000000000000e+00
      6.400000000000e+00       2.400000000000e-01       0.000000000000e+00
      6.800000000000e+00       2.400000000000e-01       0.000000000000e+00
      7.200000000000e+00       2.400000000000e-01       0.000000000000e+00
      7.600000000000e+00       2.400000000000e-01       0.000000000000e+00
      8.000000000000e+00       2.400000000000e-01       0.000000000000e+00
      8.400000000000e+00       2.400000000000e-01       0.000000000000e+00
      8.800000000000e+00       2.400000000000e-01       0.000000000000e+00
      9.200000000000e+00       2.400000000000e-01       0.000000000000e+00
      9.600000000000e+00       2.400000000000e-01       0.000000000000e+00
      1.000000000000e+01       2.400000000000e-01       0.000000000000e+00
      0.000000000000e+00       3.200000000000e-01       0.000000000000e+00
      4.000000000000e-01       3.200000000000e-01       0.000000000000e+00
      8.000000000000e-01       3.200000000000e-01       0.000000000000e+00
      1.200000000000e+00       3.200000000000e-01       0.000000000000e+00
      1.600000000000e+00       3.200000000000e-01       0.000000000000e+00
      2.000000000000e+00       3.200000000000e-01       0.000000000000e+00
      2.400000000000e+00       3.200000000000e-01       0.000000000000e+00
      2.800000000000e+00       3.200000000000e-01       0.000000000000e+00
      3.200000000000e+00       3.200000000000e-01       0.000000000000e+00
      3.600000000000e+00       3.200000000000e-01       0.000000000000e+00
      4.000000000000e+00       3.200000000000e-01       0.000000000000e+00
      4.400000000000e+00       3.200000000000e-01       0.000000000000e+00
      4.800000000000e+00       3.200000000000e-01       0.000000000000e+00
      5.200000000000e+00       3.200000000000e-01       0.000000000000e+00
      5.600000000000e+00       3.200000000000e-01       0.000000000000e+00
      6.000000000000e+00       3.200000000000e-01       0.000000000000e+00
      6.400000000000e+00       3.200000000000e-01       0.000000000000e+00
      6.800000000000e+00       3.200000000000e-01       0.000000000000e+00
      7.200000000000e+00       3.200000000000e-01       0.000000000000e+00
      7.600000000000e+00       3.200000000000e-01       0.000000000000e+00
      8.000000000000e+00       3.200000000000e-01       0.000000000000e+00
      8.400000000000e+00       3.200000000000e-01       0.000000000000e+00
      8.800000000000e+00       3.200000000000e-01       0.000000000000e+00
      9.200000000000e+00       3.200000000000e-01       0.000000000000e+00
      9.600000000000e+00       3.200000000000e-01       0.000000000000e+00
      1.000000000000e+01       3.200000000000e-01       0.000000000000e+00
[...]
POINT_DATA 1352
VECTORS DSPL double
      0.000000000000e+00       0.000000000000e+00       0.000000000000e+00
      4.244897959182e-05       0.000000000000e+00       0.000000000000e+00
      8.489795918365e-05       0.000000000000e+00       0.000000000000e+00
      1.273469387755e-04       0.000000000000e+00       0.000000000000e+00
      1.697959183673e-04       0.000000000000e+00       0.000000000000e+00
      2.122448979591e-04       0.000000000000e+00       0.000000000000e+00
      2.546938775509e-04       0.000000000000e+00       0.000000000000e+00
      2.971428571428e-04       0.000000000000e+00       0.000000000000e+00
      3.395918367346e-04       0.000000000000e+00       0.000000000000e+00
      3.820408163264e-04       0.000000000000e+00       0.000000000000e+00
      4.244897959182e-04       0.000000000000e+00       0.000000000000e+00
      4.669387755101e-04       0.000000000000e+00       0.000000000000e+00
      5.093877551019e-04       0.000000000000e+00       0.000000000000e+00
      5.518367346937e-04       0.000000000000e+00       0.000000000000e+00
      5.942857142855e-04       0.000000000000e+00       0.000000000000e+00
      6.367346938774e-04       0.000000000000e+00       0.000000000000e+00
      6.791836734692e-04       0.000000000000e+00       0.000000000000e+00
      7.216326530610e-04       0.000000000000e+00       0.000000000000e+00
      7.640816326528e-04       0.000000000000e+00       0.000000000000e+00
      8.065306122447e-04       0.000000000000e+00       0.000000000000e+00
      8.489795918365e-04       0.000000000000e+00       0.000000000000e+00
      8.914285714283e-04       0.000000000000e+00       0.000000000000e+00
      9.338775510201e-04       0.000000000000e+00       0.000000000000e+00
      9.763265306120e-04       0.000000000000e+00       0.000000000000e+00
      1.018775510204e-03       0.000000000000e+00       0.000000000000e+00
      1.061224489796e-03       0.000000000000e+00       0.000000000000e+00
      0.000000000000e+00       0.000000000000e+00       0.000000000000e+00
      4.244897959182e-05       0.000000000000e+00       0.000000000000e+00
      8.489795918365e-05       0.000000000000e+00       0.000000000000e+00
      1.273469387755e-04       0.000000000000e+00       0.000000000000e+00
      1.697959183673e-04       0.000000000000e+00       0.000000000000e+00
      2.122448979591e-04       0.000000000000e+00       0.000000000000e+00
      2.546938775509e-04       0.000000000000e+00       0.000000000000e+00
      2.971428571428e-04       0.000000000000e+00       0.000000000000e+00
      3.395918367346e-04       0.000000000000e+00       0.000000000000e+00
      3.820408163264e-04       0.000000000000e+00       0.000000000000e+00
      4.244897959182e-04       0.000000000000e+00       0.000000000000e+00
      4.669387755101e-04       0.000000000000e+00       0.000000000000e+00
      5.093877551019e-04       0.000000000000e+00       0.000000000000e+00
      5.518367346937e-04       0.000000000000e+00       0.000000000000e+00
      5.942857142864e-04       0.000000000000e+00       0.000000000000e+00
      6.367346938774e-04       0.000000000000e+00       0.000000000000e+00
      6.791836734692e-04       0.000000000000e+00       0.000000000000e+00
      7.216326530610e-04       0.000000000000e+00       0.000000000000e+00
      7.640816326511e-04       0.000000000000e+00       0.000000000000e+00
      8.065306122447e-04       0.000000000000e+00       0.000000000000e+00
      8.489795918383e-04       0.000000000000e+00       0.000000000000e+00
      8.914285714265e-04       0.000000000000e+00       0.000000000000e+00
      9.338775510201e-04       0.000000000000e+00       0.000000000000e+00
      9.763265306120e-04       0.000000000000e+00       0.000000000000e+00
      1.018775510204e-03       0.000000000000e+00       0.000000000000e+00
      1.061224489796e-03       0.000000000000e+00       0.000000000000e+00
      0.000000000000e+00       0.000000000000e+00       0.000000000000e+00
      4.244897959182e-05       0.000000000000e+00       0.000000000000e+00
      8.489795918365e-05       0.000000000000e+00       0.000000000000e+00
      1.273469387755e-04       0.000000000000e+00       0.000000000000e+00
      1.697959183673e-04       0.000000000000e+00       0.000000000000e+00
      2.122448979591e-04       0.000000000000e+00       0.000000000000e+00
      2.546938775509e-04       0.000000000000e+00       0.000000000000e+00
      2.971428571428e-04       0.000000000000e+00       0.000000000000e+00
      3.395918367346e-04       0.000000000000e+00       0.000000000000e+00
      3.820408163264e-04       0.000000000000e+00       0.000000000000e+00
      4.244897959182e-04       0.000000000000e+00       0.000000000000e+00
      4.669387755101e-04       0.000000000000e+00       0.000000000000e+00
      5.093877551019e-04       0.000000000000e+00       0.000000000000e+00
      5.518367346937e-04       0.000000000000e+00       0.000000000000e+00
      5.942857142855e-04       0.000000000000e+00       0.000000000000e+00
      6.367346938774e-04       0.000000000000e+00       0.000000000000e+00
      6.791836734683e-04       0.000000000000e+00       0.000000000000e+00
      7.216326530610e-04       0.000000000000e+00       0.000000000000e+00
      7.640816326537e-04       0.000000000000e+00       0.000000000000e+00
      8.065306122447e-04       0.000000000000e+00       0.000000000000e+00
      8.489795918365e-04       0.000000000000e+00       0.000000000000e+00
      8.914285714283e-04       0.000000000000e+00       0.000000000000e+00
      9.338775510201e-04       0.000000000000e+00       0.000000000000e+00
      9.763265306120e-04       0.000000000000e+00       0.000000000000e+00
      1.018775510204e-03       0.000000000000e+00       0.000000000000e+00
      1.061224489796e-03       0.000000000000e+00       0.000000000000e+00
      0.000000000000e+00       0.000000000000e+00       0.000000000000e+00
      4.244897959182e-05       0.000000000000e+00       0.000000000000e+00
      8.489795918365e-05       0.000000000000e+00       0.000000000000e+00
      1.273469387755e-04       0.000000000000e+00       0.000000000000e+00
      1.697959183673e-04       0.000000000000e+00       0.000000000000e+00
      2.122448979591e-04       0.000000000000e+00       0.000000000000e+00
      2.546938775509e-04       0.000000000000e+00       0.000000000000e+00
      2.971428571428e-04       0.000000000000e+00       0.000000000000e+00
      3.395918367346e-04       0.000000000000e+00       0.000000000000e+00
      3.820408163264e-04       0.000000000000e+00       0.000000000000e+00
      4.244897959182e-04       0.000000000000e+00       0.000000000000e+00
      4.669387755101e-04       0.000000000000e+00       0.000000000000e+00
      5.093877551019e-04       0.000000000000e+00       0.000000000000e+00
      5.518367346937e-04       0.000000000000e+00       0.000000000000e+00
      5.942857142855e-04       0.000000000000e+00       0.000000000000e+00
      6.367346938765e-04       0.000000000000e+00       0.000000000000e+00
      6.791836734692e-04       0.000000000000e+00       0.000000000000e+00
      7.216326530610e-04       0.000000000000e+00       0.000000000000e+00
      7.640816326528e-04       0.000000000000e+00       0.000000000000e+00
      8.065306122464e-04       0.000000000000e+00       0.000000000000e+00
      8.489795918365e-04       0.000000000000e+00       0.000000000000e+00
      8.914285714283e-04       0.000000000000e+00       0.000000000000e+00
      9.338775510201e-04       0.000000000000e+00       0.000000000000e+00
      9.763265306120e-04       0.000000000000e+00       0.000000000000e+00
      1.018775510204e-03       0.000000000000e+00       0.000000000000e+00
      1.061224489796e-03       0.000000000000e+00       0.000000000000e+00
      0.000000000000e+00       0.000000000000e+00       0.000000000000e+00
      4.244897959182e-05       0.000000000000e+00       0.000000000000e+00
      8.489795918365e-05       0.000000000000e+00       0.000000000000e+00
      1.273469387755e-04       0.000000000000e+00       0.000000000000e+00
      1.697959183673e-04       0.000000000000e+00       0.000000000000e+00
      2.122448979591e-04       0.000000000000e+00       0.000000000000e+00
      2.546938775509e-04       0.000000000000e+00       0.000000000000e+00
      2.971428571428e-04       0.000000000000e+00       0.000000000000e+00
      3.395918367346e-04       0.000000000000e+00       0.000000000000e+00
      3.820408163264e-04       0.000000000000e+00       0.000000000000e+00
      4.244897959182e-04       0.000000000000e+00       0.000000000000e+00
      4.669387755101e-04       0.000000000000e+00       0.000000000000e+00
      5.093877551019e-04       0.000000000000e+00       0.000000000000e+00
      5.518367346937e-04       0.000000000000e+00       0.000000000000e+00
      5.942857142855e-04       0.000000000000e+00       0.000000000000e+00
      6.367346938774e-04       0.000000000000e+00       0.000000000000e+00
      6.791836734692e-04       0.000000000000e+00       0.000000000000e+00
      7.216326530610e-04       0.000000000000e+00       0.000000000000e+00
      7.640816326528e-04       0.000000000000e+00       0.000000000000e+00
      8.065306122447e-04       0.000000000000e+00       0.000000000000e+00
      8.489795918383e-04       0.000000000000e+00       0.000000000000e+00
      8.914285714265e-04       0.000000000000e+00       0.000000000000e+00
      9.338775510219e-04       0.000000000000e+00       0.000000000000e+00
      9.763265306137e-04       0.000000000000e+00       0.000000000000e+00
      1.018775510204e-03       0.000000000000e+00       0.000000000000e+00
      1.061224489796e-03       0.000000000000e+00       0.000000000000e+00
      0.000000000000e+00       0.000000000000e+00       0.000000000000e+00
      4.244897959182e-05       0.000000000000e+00       0.000000000000e+00
      8.489795918365e-05       0.000000000000e+00       0.000000000000e+00
      1.273469387755e-04       0.000000000000e+00       0.000000000000e+00
      1.697959183673e-04       0.000000000000e+00       0.000000000000e+00
      2.122448979591e-04       0.000000000000e+00       0.000000000000e+00
      2.546938775509e-04       0.000000000000e+00       0.000000000000e+00
      2.971428571428e-04       0.000000000000e+00       0.000000000000e+00
      3.395918367346e-04       0.000000000000e+00       0.000000000000e+00
      3.820408163264e-04       0.000000000000e+00       0.000000000000e+00
      4.244897959182e-04       0.000000000000e+00       0.000000000000e+00
      4.669387755101e-04       0.000000000000e+00       0.000000000000e+00
      5.093877551019e-04       0.000000000000e+00       0.000000000000e+00
      5.518367346937e-04       0.000000000000e+00       0.000000000000e+00
      5.942857142855e-04       0.000000000000e+00       0.000000000000e+00
      6.367346938765e-04       0.000000000000e+00       0.000000000000e+00
      6.791836734701e-04       0.000000000000e+00       0.000000000000e+00
      7.216326530610e-04       0.000000000000e+00       0.000000000000e+00
      7.640816326528e-04       0.000000000000e+00       0.000000000000e+00
      8.065306122447e-04       0.000000000000e+00       0.000000000000e+00
      8.489795918365e-04       0.000000000000e+00       0.000000000000e+00
      8.914285714301e-04       0.000000000000e+00       0.000000000000e+00
      9.338775510184e-04       0.000000000000e+00       0.000000000000e+00
      9.763265306120e-04       0.000000000000e+00       0.000000000000e+00
      1.018775510204e-03       0.000000000000e+00       0.000000000000e+00
      1.061224489796e-03       0.000000000000e+00       0.000000000000e+00
      0.000000000000e+00       0.000000000000e+00       0.000000000000e+00
      4.244897959182e-05       0.000000000000e+00       0.000000000000e+00
      8.489795918365e-05       0.000000000000e+00       0.000000000000e+00
      1.273469387755e-04       0.000000000000e+00       0.000000000000e+00
      1.697959183673e-04       0.000000000000e+00       0.000000000000e+00
      2.122448979591e-04       0.000000000000e+00       0.000000000000e+00
      2.546938775509e-04       0.000000000000e+00       0.000000000000e+00
      2.971428571428e-04       0.000000000000e+00       0.000000000000e+00
      3.395918367346e-04       0.000000000000e+00       0.000000000000e+00
      3.820408163264e-04       0.000000000000e+00       0.000000000000e+00
      4.244897959182e-04       0.000000000000e+00       0.000000000000e+00
      4.669387755101e-04       0.000000000000e+00       0.000000000000e+00
      5.093877551019e-04       0.000000000000e+00       0.000000000000e+00
      5.518367346937e-04       0.000000000000e+00       0.000000000000e+00
      5.942857142847e-04       0.000000000000e+00       0.000000000000e+00
      6.367346938774e-04       0.000000000000e+00       0.000000000000e+00
      6.791836734692e-04       0.000000000000e+00       0.000000000000e+00
      7.216326530610e-04       0.000000000000e+00       0.000000000000e+00
      7.640816326528e-04       0.000000000000e+00       0.000000000000e+00
      8.065306122429e-04       0.000000000000e+00       0.000000000000e+00
      8.489795918365e-04       0.000000000000e+00       0.000000000000e+00
      8.914285714283e-04       0.000000000000e+00       0.000000000000e+00
      9.338775510201e-04       0.000000000000e+00       0.000000000000e+00
      9.763265306120e-04       0.000000000000e+00       0.000000000000e+00
      1.018775510204e-03       0.000000000000e+00       0.000000000000e+00
      1.061224489796e-03       0.000000000000e+00       0.000000000000e+00
      0.000000000000e+00       0.000000000000e+00       0.000000000000e+00
      4.244897959182e-05       0.000000000000e+00       0.000000000000e+00
      8.489795918365e-05       0.000000000000e+00       0.000000000000e+00
      1.273469387755e-04       0.000000000000e+00       0.000000000000e+00
      1.697959183673e-04       0.000000000000e+00       0.000000000000e+00
      2.122448979591e-04       0.000000000000e+00       0.000000000000e+00
      2.546938775509e-04       0.000000000000e+00       0.000000000000e+00
      2.971428571428e-04       0.000000000000e+00       0.000000000000e+00
      3.395918367346e-04       0.000000000000e+00       0.000000000000e+00
      3.820408163264e-04       0.000000000000e+00       0.000000000000e+00
      4.244897959182e-04       0.000000000000e+00       0.000000000000e+00
      4.669387755101e-04       0.000000000000e+00       0.000000000000e+00
      5.093877551019e-04       0.000000000000e+00       0.000000000000e+00
      5.518367346937e-04       0.000000000000e+00       0.000000000000e+00
      5.942857142855e-04       0.000000000000e+00       0.000000000000e+00
      6.367346938774e-04       0.000000000000e+00       0.000000000000e+00
      6.791836734692e-04       0.000000000000e+00       0.000000000000e+00
      7.216326530610e-04       0.000000000000e+00       0.000000000000e+00
      7.640816326528e-04       0.000000000000e+00       0.000000000000e+00
      8.065306122464e-04       0.000000000000e+00       0.000000000000e+00
      8.489795918365e-04       0.000000000000e+00       0.000000000000e+00
      8.914285714283e-04       0.000000000000e+00       0.000000000000e+00
      9.338775510201e-04       0.000000000000e+00       0.000000000000e+00
      9.763265306137e-04       0.000000000000e+00       0.000000000000e+00
      1.018775510204e-03       0.000000000000e+00       0.000000000000e+00
      1.061224489796e-03       0.000000000000e+00       0.000000000000e+00
      0.000000000000e+00       0.000000000000e+00       0.000000000000e+00
      4.244897959182e-05       0.000000000000e+00       0.000000000000e+00
      8.489795918365e-05       0.000000000000e+00       0.000000000000e+00
      1.273469387755e-04       0.000000000000e+00       0.000000000000e+00
      1.697959183673e-04       0.000000000000e+00       0.000000000000e+00
      2.122448979591e-04       0.000000000000e+00       0.000000000000e+00
      2.546938775509e-04       0.000000000000e+00       0.000000000000e+00
      2.971428571428e-04       0.000000000000e+00       0.000000000000e+00
      3.395918367346e-04       0.000000000000e+00       0.000000000000e+00
      3.820408163264e-04       0.000000000000e+00       0.000000000000e+00
      4.244897959182e-04       0.000000000000e+00       0.000000000000e+00
      4.669387755101e-04       0.000000000000e+00       0.000000000000e+00
      5.093877551019e-04       0.000000000000e+00       0.000000000000e+00
      5.518367346937e-04       0.000000000000e+00       0.000000000000e+00
      5.942857142855e-04       0.000000000000e+00       0.000000000000e+00
      6.367346938774e-04       0.000000000000e+00       0.000000000000e+00
      6.791836734692e-04       0.000000000000e+00       0.000000000000e+00
      7.216326530610e-04       0.000000000000e+00       0.000000000000e+00
      7.640816326528e-04       0.000000000000e+00       0.000000000000e+00
      8.065306122456e-04       0.000000000000e+00       0.000000000000e+00
      8.489795918383e-04       0.000000000000e+00       0.000000000000e+00
      8.914285714265e-04       0.000000000000e+00       0.000000000000e+00
      9.338775510219e-04       0.000000000000e+00       0.000000000000e+00
      9.763265306137e-04       0.000000000000e+00       0.000000000000e+00
      1.018775510206e-03       0.000000000000e+00       0.000000000000e+00
      1.061224489796e-03       0.000000000000e+00       0.000000000000e+00
      0.000000000000e+00       0.000000000000e+00       0.000000000000e+00
      4.244897959182e-05       0.000000000000e+00       0.000000000000e+00
      8.489795918365e-05       0.000000000000e+00       0.000000000000e+00
      1.273469387755e-04       0.000000000000e+00       0.000000000000e+00
      1.697959183673e-04       0.000000000000e+00       0.000000000000e+00
      2.122448979591e-04       0.000000000000e+00       0.000000000000e+00
      2.546938775509e-04       0.000000000000e+00       0.000000000000e+00
      2.971428571428e-04       0.000000000000e+00       0.000000000000e+00
      3.395918367346e-04       0.000000000000e+00       0.000000000000e+00
      3.820408163264e-04       0.000000000000e+00       0.000000000000e+00
      4.244897959182e-04       0.000000000000e+00       0.000000000000e+00
      4.669387755101e-04       0.000000000000e+00       0.000000000000e+00
      5.093877551019e-04       0.000000000000e+00       0.000000000000e+00
      5.518367346937e-04       0.000000000000e+00       0.000000000000e+00
      5.942857142847e-04       0.000000000000e+00       0.000000000000e+00
      6.367346938774e-04       0.000000000000e+00       0.000000000000e+00
      6.791836734692e-04       0.000000000000e+00       0.000000000000e+00
      7.216326530610e-04       0.000000000000e+00       0.000000000000e+00
      7.640816326528e-04       0.000000000000e+00       0.000000000000e+00
      8.065306122447e-04       0.000000000000e+00       0.000000000000e+00
      8.489795918365e-04       0.000000000000e+00       0.000000000000e+00
      8.914285714283e-04       0.000000000000e+00       0.000000000000e+00
      9.338775510201e-04       0.000000000000e+00       0.000000000000e+00
      9.763265306120e-04       0.000000000000e+00       0.000000000000e+00
      1.018775510204e-03       0.000000000000e+00       0.000000000000e+00
      1.061224489796e-03       0.000000000000e+00       0.000000000000e+00
      0.000000000000e+00       0.000000000000e+00       0.000000000000e+00
      4.244897959188e-05       0.000000000000e+00       0.000000000000e+00
      8.489795918365e-05       0.000000000000e+00       0.000000000000e+00
      1.273469387755e-04       0.000000000000e+00       0.000000000000e+00
      1.697959183673e-04       0.000000000000e+00       0.000000000000e+00
      2.122448979591e-04       0.000000000000e+00       0.000000000000e+00