# vtk DataFile Version 3.0
truss_with_no_constant_cross_section_C0_02.vtk
ASCII
DATASET UNSTRUCTURED_GRID
FIELD FieldData 2
TIME 1 1 double
1.000000e+00
CYCLE 1 1 int
2
POINTS 562 double
      0.000000000000e+00       5.000000000000e+00       0.000000000000e+00
      1.600000000000e-01       4.800000000000e+00       0.000000000000e+00
      3.200000000000e-01       4.600000000000e+00       0.000000000000e+00
      4.800000000000e-01       4.400000000000e+00       0.000000000000e+00
      6.400000000000e-01       4.200000000000e+00       0.000000000000e+00
      8.000000000000e-01       4.000000000000e+00       0.000000000000e+00
      9.600000000000e-01       3.800000000000e+00       0.000000000000e+00
      1.120000000000e+00       3.600000000000e+00       0.000000000000e+00
      1.280000000000e+00       3.400000000000e+00       0.000000000000e+00
      1.440000000000e+00       3.200000000000e+00       0.000000000000e+00
      1.600000000000e+00       3.000000000000e+00       0.000000000000e+00
      1.760000000000e+00       2.800000000000e+00       0.000000000000e+00
      1.920000000000e+00       2.600000000000e+00       0.000000000000e+00
      2.080000000000e+00       2.400000000000e+00       0.000000000000e+00
      2.240000000000e+00       2.200000000000e+00       0.000000000000e+00
      2.400000000000e+00       2.000000000000e+00       0.000000000000e+00
      2.560000000000e+00       1.800000000000e+00       0.000000000000e+00
      2.720000000000e+00       1.600000000000e+00       0.000000000000e+00
      2.880000000000e+00       1.400000000000e+00       0.000000000000e+00
      3.040000000000e+00       1.200000000000e+00       0.000000000000e+00
      3.200000000000e+00       1.000000000000e+00       0.000000000000e+00
      5.000000000000e-01       5.000000000000e+00       0.000000000000e+00
      6.440000000000e-01       4.800000000000e+00       0.000000000000e+00
      7.880000000000e-01       4.600000000000e+00       0.000000000000e+00
      9.320000000000e-01       4.400000000000e+00       0.000000000000e+00
      1.076000000000e+00       4.200000000000e+00       0.000000000000e+00
      1.220000000000e+00       4.000000000000e+00       0.000000000000e+00
      1.364000000000e+00       3.800000000000e+00       0.000000000000e+00
      1.508000000000e+00       3.600000000000e+00       0.000000000000e+00
      1.652000000000e+00       3.400000000000e+00       0.000000000000e+00
      1.796000000000e+00       3.200000000000e+00       0.000000000000e+00
      1.940000000000e+00       3.000000000000e+00       0.000000000000e+00
      2.084000000000e+00       2.800000000000e+00       0.000000000000e+00
      2.228000000000e+00       2.600000000000e+00       0.000000000000e+00
      2.372000000000e+00       2.400000000000e+00       0.000000000000e+00
      2.516000000000e+00       2.200000000000e+00       0.000000000000e+00
      2.660000000000e+00       2.000000000000e+00       0.000000000000e+00
      2.804000000000e+00       1.800000000000e+00       0.000000000000e+00
      2.948000000000e+00       1.600000000000e+00       0.000000000000e+00
      3.092000000000e+00       1.400000000000e+00       0.000000000000e+00
      3.236000000000e+00       1.200000000000e+00       0.000000000000e+00
      3.380000000000e+00       1.000000000000e+00       0.000000000000e+00
      1.000000000000e+00       5.000000000000e+00       0.000000000000e+00
      1.128000000000e+00       4.800000000000e+00       0.000000000000e+00
      1.256000000000e+00       4.600000000000e+00       0.000000000000e+00
      1.384000000000e+00       4.400000000000e+00       0.000000000000e+00
      1.512000000000e+00       4.200000000000e+00       0.000000000000e+00
      1.640000000000e+00       4.000000000000e+00       0.000000000000e+00
      1.768000000000e+00       3.800000000000e+00       0.000000000000e+00
      1.896000000000e+00       3.600000000000e+00       0.000000000000e+00
      2.024000000000e+00       3.400000000000e+00       0.000000000000e+00
      2.152000000000e+00       3.200000000000e+00       0.000000000000e+00
      2.280000000000e+00       3.000000000000e+00       0.000000000000e+00
      2.408000000000e+00       2.800000000000e+00       0.000000000000e+00
      2.536000000000e+00       2.600000000000e+00       0.000000000000e+00
      2.664000000000e+00       2.400000000000e+00       0.000000000000e+00
      2.792000000000e+00       2.200000000000e+00       0.000000000000e+00
      2.920000000000e+00       2.000000000000e+00       0.000000000000e+00
      3.048000000000e+00       1.800000000000e+00       0.000000000000e+00
      3.176000000000e+00       1.600000000000e+00       0.000000000000e+00
      3.304000000000e+00       1.400000000000e+00       0.000000000000e+00
      3.432000000000e+00       1.200000000000e+00       0.000000000000e+00
      3.560000000000e+00       1.000000000000e+00       0.000000000000e+00
      1.500000000000e+00       5.000000000000e+00       0.000000000000e+00
      1.612000000000e+00       4.800000000000e+00       0.000000000000e+00
      1.724000000000e+00       4.600000000000e+00       0.000000000000e+00
      1.836000000000e+00       4.400000000000e+00       0.000000000000e+00
      1.948000000000e+00       4.200000000000e+00       0.000000000000e+00
      2.060000000000e+00       4.000000000000e+00       0.000000000000e+00
      2.172000000000e+00       3.800000000000e+00       0.000000000000e+00
      2.284000000000e+00       3.600000000000e+00       0.000000000000e+00
      2.396000000000e+00       3.400000000000e+00       0.000000000000e+00
      2.508000000000e+00       3.200000000000e+00       0.000000000000e+00
      2.620000000000e+00       3.000000000000e+00       0.000000000000e+00
      2.732000000000e+00       2.800000000000e+00       0.000000000000e+00
      2.844000000000e+00       2.600000000000e+00       0.000000000000e+00
      2.956000000000e+00       2.400000000000e+00       0.000000000000e+00
      3.068000000000e+00       2.200000000000e+00       0.000000000000e+00
      3.180000000000e+00       2.000000000000e+00       0.000000000000e+00
      3.292000000000e+00       1.800000000000e+00       0.000000000000e+00
      3.404000000000e+00       1.600000000000e+00       0.000000000000e+00
      3.516000000000e+00       1.400000000000e+00       0.000000000000e+00
      3.628000000000e+00       1.200000000000e+00       0.000000000000e+00
      3.740000000000e+00       1.000000000000e+00       0.000000000000e+00
      2.000000000000e+00       5.000000000000e+00       0.000000000000e+00
      2.096000000000e+00       4.800000000000e+00       0.000000000000e+00
      2.192000000000e+00       4.600000000000e+00       0.000000000000e+00
      2.288000000000e+00       4.400000000000e+00       0.000000000000e+00
      2.384000000000e+00       4.200000000000e+00       0.000000000000e+00
      2.480000000000e+00       4.000000000000e+00       0.000000000000e+00
      2.576000000000e+00       3.800000000000e+00       0.000000000000e+00
      2.672000000000e+00       3.600000000000e+00       0.000000000000e+00
      2.768000000000e+00       3.400000000000e+00       0.000000000000e+00
      2.864000000000e+00       3.200000000000e+00       0.000000000000e+00
      2.960000000000e+00       3.000000000000e+00       0.000000000000e+00
      3.056000000000e+00       2.800000000000e+00       0.000000000000e+00
      3.152000000000e+00       2.600000000000e+00       0.000000000000e+00
      3.248000000000e+00       2.400000000000e+00       0.000000000000e+00
      3.344000000000e+00       2.200000000000e+00       0.000000000000e+00
      3.440000000000e+00       2.000000000000e+00       0.000000000000e+00
      3.536000000000e+00       1.800000000000e+00       0.000000000000e+00
      3.632000000000e+00       1.600000000000e+00       0.000000000000e+00
      3.728000000000e+00       1.400000000000e+00       0.000000000000e+00
      3.824000000000e+00       1.200000000000e+00       0.000000000000e+00
      3.920000000000e+00       1.000000000000e+00       0.000000000000e+00
      2.500000000000e+00       5.000000000000e+00       0.000000000000e+00
      2.580000000000e+00       4.800000000000e+00       0.000000000000e+00
      2.660000000000e+00       4.600000000000e+00       0.000000000000e+00
      2.740000000000e+00       4.400000000000e+00       0.000000000000e+00
      2.820000000000e+00       4.200000000000e+00       0.000000000000e+00
      2.900000000000e+00       4.000000000000e+00       0.000000000000e+00
      2.980000000000e+00       3.800000000000e+00       0.000000000000e+00
      3.060000000000e+00       3.600000000000e+00       0.000000000000e+00
      3.140000000000e+00       3.400000000000e+00       0.000000000000e+00
      3.220000000000e+00       3.200000000000e+00       0.000000000000e+00
      3.300000000000e+00       3.000000000000e+00       0.000000000000e+00
      3.380000000000e+00       2.800000000000e+00       0.000000000000e+00
      3.460000000000e+00       2.600000000000e+00       0.000000000000e+00
      3.540000000000e+00       2.400000000000e+00       0.000000000000e+00
      3.620000000000e+00       2.200000000000e+00       0.000000000000e+00
      3.700000000000e+00       2.000000000000e+00       0.000000000000e+00
      3.780000000000e+00       1.800000000000e+00       0.000000000000e+00
      3.860000000000e+00       1.600000000000e+00       0.000000000000e+00
      3.940000000000e+00       1.400000000000e+00       0.000000000000e+00
      4.020000000000e+00       1.200000000000e+00       0.000000000000e+00
      4.100000000000e+00       1.000000000000e+00       0.000000000000e+00
      3.000000000000e+00       5.000000000000e+00       0.000000000000e+00
      3.064000000000e+00       4.800000000000e+00       0.000000000000e+00
      3.128000000000e+00       4.600000000000e+00       0.000000000000e+00
      3.192000000000e+00       4.400000000000e+00       0.000000000000e+00
[...]
POINT_DATA 562
VECTORS DSPL double
      0.000000000000e+00       0.000000000000e+00       0.000000000000e+00
      1.426467421342e-03      -5.216040766962e-04       0.000000000000e+00
      3.064714408439e-03      -1.077218095348e-03       0.000000000000e+00
      4.762265179170e-03      -1.610933973044e-03       0.000000000000e+00
      6.443938784059e-03      -2.120865180556e-03       0.000000000000e+00
      8.035223782363e-03      -2.638274887683e-03       0.000000000000e+00
      9.483991451766e-03      -3.207981514502e-03       0.000000000000e+00
      1.075264292832e-02      -3.879232981852e-03       0.000000000000e+00
      1.181834193923e-02      -4.701291030450e-03       0.000000000000e+00
      1.266990272924e-02      -5.720878587713e-03       0.000000000000e+00
      1.330575760924e-02      -6.981065128770e-03       0.000000000000e+00
      1.373166792933e-02      -8.520854793596e-03       0.000000000000e+00
      1.395867220037e-02      -1.037537159685e-02       0.000000000000e+00
      1.400114353967e-02      -1.257653487922e-02       0.000000000000e+00
      1.387486171986e-02      -1.515410313077e-02       0.000000000000e+00
      1.359532231830e-02      -1.813728944500e-02       0.000000000000e+00
      1.317536468857e-02      -2.155676650605e-02       0.000000000000e+00
      1.262394828506e-02      -2.544790588847e-02       0.000000000000e+00
      1.194087966541e-02      -2.985456595241e-02       0.000000000000e+00
      1.111789039628e-02      -3.483869823349e-02       0.000000000000e+00
      1.012201101455e-02      -4.048733569492e-02       0.000000000000e+00
      0.000000000000e+00       0.000000000000e+00       0.000000000000e+00
      1.673042014496e-03      -5.941913021275e-04       0.000000000000e+00
      3.400503125534e-03      -1.157848414631e-03       0.000000000000e+00
      5.133588508742e-03      -1.729342575639e-03       0.000000000000e+00
      6.808645799437e-03      -2.349376165964e-03       0.000000000000e+00
      8.372639157814e-03      -3.058242282024e-03       0.000000000000e+00
      9.784101232341e-03      -3.893881635137e-03       0.000000000000e+00
      1.101391998768e-02      -4.892006989111e-03       0.000000000000e+00
      1.204421233415e-02      -6.085520892978e-03       0.000000000000e+00
      1.286682337866e-02      -7.504593558548e-03       0.000000000000e+00
      1.348159378691e-02      -9.176810214369e-03       0.000000000000e+00
      1.389460456723e-02      -1.112760103063e-02       0.000000000000e+00
      1.411644547213e-02      -1.338088256199e-02       0.000000000000e+00
      1.416052041642e-02      -1.595993464242e-02       0.000000000000e+00
      1.404141282659e-02      -1.888858825854e-02       0.000000000000e+00
      1.377310276073e-02      -2.219280526822e-02       0.000000000000e+00
      1.336727326736e-02      -2.590291265733e-02       0.000000000000e+00
      1.283085600152e-02      -3.005667995142e-02       0.000000000000e+00
      1.216316712153e-02      -3.470538767461e-02       0.000000000000e+00
      1.135261994473e-02      -3.991772220636e-02       0.000000000000e+00
      1.037070015787e-02      -4.580110306209e-02       0.000000000000e+00
      0.000000000000e+00       0.000000000000e+00       0.000000000000e+00
      1.874076530003e-03      -6.664239545442e-04       0.000000000000e+00
      3.725728817930e-03      -1.354049094147e-03       0.000000000000e+00
      5.502340771252e-03      -2.103501213960e-03       0.000000000000e+00
      7.163880603469e-03      -2.953606452414e-03       0.000000000000e+00
      8.677846640578e-03      -3.938616425370e-03       0.000000000000e+00
      1.002005794891e-02      -5.088763614404e-03       0.000000000000e+00
      1.117430141380e-02      -6.430305836415e-03       0.000000000000e+00
      1.213183200416e-02      -7.986198736758e-03       0.000000000000e+00
      1.289041928635e-02      -9.776774213571e-03       0.000000000000e+00
      1.345329056407e-02      -1.182051456161e-02       0.000000000000e+00
      1.382794851172e-02      -1.413488992038e-02       0.000000000000e+00
      1.402494624404e-02      -1.673728219471e-02       0.000000000000e+00
      1.405662988773e-02      -1.964606056490e-02       0.000000000000e+00
      1.393576394494e-02      -2.288188887032e-02       0.000000000000e+00
      1.367411908384e-02      -2.646946556403e-02       0.000000000000e+00
      1.328062367292e-02      -3.043979276846e-02       0.000000000000e+00
      1.275928116607e-02      -3.483429012520e-02       0.000000000000e+00
      1.210571102127e-02      -3.970902315611e-02       0.000000000000e+00
      1.130527753552e-02      -4.514756469164e-02       0.000000000000e+00
      1.031014858591e-02      -5.128898007863e-02       0.000000000000e+00
      0.000000000000e+00       0.000000000000e+00       0.000000000000e+00
      2.050828758313e-03      -8.317982903696e-04       0.000000000000e+00
      3.977045289140e-03      -1.729747709397e-03       0.000000000000e+00
      5.755210781932e-03      -2.731567486295e-03       0.000000000000e+00
      7.366797185825e-03      -3.868664405605e-03       0.000000000000e+00
      8.798855726985e-03      -5.167728261619e-03       0.000000000000e+00
      1.004325782945e-02      -6.650978426853e-03       0.000000000000e+00
      1.109636798809e-02      -8.337009216443e-03       0.000000000000e+00
      1.195853080197e-02      -1.024160446401e-02       0.000000000000e+00
      1.263358627343e-02      -1.237862936740e-02       0.000000000000e+00
      1.312826917393e-02      -1.476093896402e-02       0.000000000000e+00
      1.345153506997e-02      -1.740131939083e-02       0.000000000000e+00
      1.361379542928e-02      -2.031349331842e-02       0.000000000000e+00
      1.362601977908e-02      -2.351324986305e-02       0.000000000000e+00
      1.349871423923e-02      -2.701982356311e-02       0.000000000000e+00
      1.324056766278e-02      -3.085760514706e-02       0.000000000000e+00
      1.285686595468e-02      -3.505884619590e-02       0.000000000000e+00
      1.234660529744e-02      -3.966679285457e-02       0.000000000000e+00
      1.170057227121e-02      -4.474254914672e-02       0.000000000000e+00
      1.088898518068e-02      -5.037553947656e-02       0.000000000000e+00
      9.867285629049e-03      -5.669182498110e-02       0.000000000000e+00
      0.000000000000e+00       0.000000000000e+00       0.000000000000e+00
      2.140212644119e-03      -1.064771915054e-03       0.000000000000e+00
      4.071113659337e-03      -2.233090296322e-03       0.000000000000e+00
      5.793378060662e-03      -3.533505768486e-03       0.000000000000e+00
      7.310289869564e-03      -4.989433523891e-03       0.000000000000e+00
      8.626389227862e-03      -6.619761304905e-03       0.000000000000e+00
      9.747462662225e-03      -8.439787224935e-03       0.000000000000e+00
      1.068034200471e-02      -1.046206726197e-02       0.000000000000e+00
      1.143285594420e-02      -1.269727369433e-02       0.000000000000e+00
      1.201370150533e-02      -1.515504192955e-02       0.000000000000e+00
      1.243226583328e-02      -1.784482736501e-02       0.000000000000e+00
      1.269834355550e-02      -2.077678652627e-02       0.000000000000e+00
      1.282171951374e-02      -2.396272075817e-02       0.000000000000e+00
      1.281157940479e-02      -2.741714540604e-02       0.000000000000e+00
      1.267566094671e-02      -3.115855436370e-02       0.000000000000e+00
      1.241907066433e-02      -3.521112185446e-02       0.000000000000e+00
      1.204234484984e-02      -3.960682900559e-02       0.000000000000e+00
      1.153935171516e-02      -4.438868997938e-02       0.000000000000e+00
      1.089058962255e-02      -4.961600083852e-02       0.000000000000e+00
      1.006111798470e-02      -5.536680727402e-02       0.000000000000e+00
      8.969040617661e-03      -6.175049600603e-02       0.000000000000e+00
      0.000000000000e+00       0.000000000000e+00       0.000000000000e+00
      2.109083413818e-03      -1.338657719661e-03       0.000000000000e+00
      3.950802288035e-03      -2.807684690378e-03       0.000000000000e+00
      5.547894322381e-03      -4.426365977698e-03       0.000000000000e+00
      6.920323124256e-03      -6.209601415347e-03       0.000000000000e+00
      8.085902414790e-03      -8.169235490050e-03       0.000000000000e+00
      9.060455467173e-03      -1.031475998771e-02       0.000000000000e+00
      9.858164892675e-03      -1.265410093914e-02       0.000000000000e+00
      1.049184728645e-02      -1.519432649322e-02       0.000000000000e+00
      1.097319329425e-02      -1.794235048017e-02       0.000000000000e+00
      1.131290357967e-02      -2.090562894463e-02       0.000000000000e+00
      1.152069529023e-02      -2.409288099080e-02       0.000000000000e+00
      1.160513303207e-02      -2.751486360079e-02       0.000000000000e+00
      1.157323349232e-02      -3.118524245361e-02       0.000000000000e+00
      1.142975221441e-02      -3.512162444432e-02       0.000000000000e+00
      1.117599056029e-02      -3.934684401390e-02       0.000000000000e+00
      1.080811577296e-02      -4.389038724301e-02       0.000000000000e+00
      1.031366142880e-02      -4.879105355551e-02       0.000000000000e+00
      9.668355835833e-03      -5.409697740565e-02       0.000000000000e+00
      8.826420056263e-03      -5.987244558407e-02       0.000000000000e+00
      7.715206332034e-03      -6.618928672804e-02       0.000000000000e+00
      0.000000000000e+00       0.000000000000e+00       0.000000000000e+00
      1.935450142378e-03      -1.621830630977e-03       0.000000000000e+00
      3.583982165440e-03      -3.393305891185e-03       0.000000000000e+00
      4.981502404217e-03      -5.323587959427e-03       0.000000000000e+00
      6.158240037303e-03      -7.419731269736e-03       0.000000000000e+00
      7.139537474456e-03      -9.687349297657e-03       0.000000000000e+00
      7.946619975405e-03      -1.213119838200e-02       0.000000000000e+00
      8.597265170991e-03      -1.475570463927e-02       0.000000000000e+00
      9.106404767000e-03      -1.756545027631e-02       0.000000000000e+00
      9.486604658407e-03      -2.056563985192e-02       0.000000000000e+00
      9.748413894254e-03      -2.376256936211e-02       0.000000000000e+00
      9.900547835997e-03      -2.716411495013e-02       0.000000000000e+00
      9.949871033565e-03      -3.078025871061e-02       0.000000000000e+00
      9.901125132370e-03      -3.462366324641e-02       0.000000000000e+00
      9.756309532285e-03      -3.871032533295e-02       0.000000000000e+00
      9.513644559585e-03      -4.306015938398e-02       0.000000000000e+00
      9.165733969997e-03      -4.769792866136e-02       0.000000000000e+00
      8.697003194706e-03      -5.265265748334e-02       0.000000000000e+00
      8.080112265925e-03      -5.795851186143e-02       0.000000000000e+00
      7.268353272455e-03      -6.364770606290e-02       0.000000000000e+00
      6.205575552456e-03      -6.973249072175e-02       0.000000000000e+00
      0.000000000000e+00       0.000000000000e+00       0.000000000000e+00
      1.615647919035e-03      -1.884050538416e-03       0.000000000000e+00
      2.966181630620e-03      -3.930551838360e-03       0.000000000000e+00
      4.091447804301e-03      -6.139466420211e-03       0.000000000000e+00
      5.023920355544e-03      -8.510815533751e-03       0.000000000000e+00
      5.790181077574e-03      -1.104504131443e-02       0.000000000000e+00
      6.411839095882e-03      -1.374321066396e-02       0.000000000000e+00
      6.906430163932e-03      -1.660722477687e-02       0.000000000000e+00
      7.288138301173e-03      -1.964000822096e-02       0.000000000000e+00
      7.568380786343e-03      -2.284570917099e-02       0.000000000000e+00
      7.756233774314e-03      -2.622991284785e-02       0.000000000000e+00
      7.858685866602e-03      -2.979987397831e-02       0.000000000000e+00
      7.880696749229e-03      -3.356476075421e-02       0.000000000000e+00
      7.825003672536e-03      -3.753589827745e-02       0.000000000000e+00
      7.691654791597e-03      -4.172692095312e-02       0.000000000000e+00
      7.477089472318e-03      -4.615387701663e-02       0.000000000000e+00
      7.172730141463e-03      -5.083459731628e-02       0.000000000000e+00
      6.763335240151e-03      -5.578792118336e-02       0.000000000000e+00
      6.222853419500e-03      -6.102979386432e-02       0.000000000000e+00
      5.517600459247e-03      -6.656648246788e-02       0.000000000000e+00
      4.587561680364e-03      -7.238571217831e-02       0.000000000000e+00
      0.000000000000e+00       0.000000000000e+00       0.000000000000e+00
      1.163034537705e-03      -2.096459860631e-03       0.000000000000e+00
      2.122537051653e-03      -4.363368296315e-03       0.000000000000e+00
      2.912212003657e-03      -6.792950036530e-03       0.000000000000e+00
      3.559105971208e-03      -9.379735195692e-03       0.000000000000e+00
      4.084975968434e-03      -1.212027481916e-02       0.000000000000e+00
      4.507222004200e-03      -1.501301185134e-02       0.000000000000e+00
      4.839701252112e-03      -1.805814769954e-02       0.000000000000e+00
      5.093381626321e-03      -2.125755960463e-02       0.000000000000e+00
      5.276854846725e-03      -2.461475136920e-02       0.000000000000e+00
      5.396710559984e-03      -2.813483734444e-02       0.000000000000e+00
      5.457768373825e-03      -3.182454267548e-02       0.000000000000e+00
      5.463144426118e-03      -3.569219531717e-02       0.000000000000e+00
      5.414151443150e-03      -3.974765125136e-02       0.000000000000e+00
      5.309940893635e-03      -4.400208452930e-02       0.000000000000e+00
      5.146911225408e-03      -4.846742877708e-02       0.000000000000e+00
      4.917885476805e-03      -5.315523082589e-02       0.000000000000e+00
      4.610341678890e-03      -5.807455549947e-02       0.000000000000e+00
      4.206996144240e-03      -6.322690711750e-02       0.000000000000e+00
      3.680053702758e-03      -6.860146583054e-02       0.000000000000e+00
      3.008578117199e-03      -7.415455528885e-02       0.000000000000e+00
      0.000000000000e+00       0.000000000000e+00       0.000000000000e+00
      6.090275167638e-04      -2.234892170033e-03       0.000000000000e+00
      1.107546490628e-03      -4.644460892142e-03       0.000000000000e+00
      1.514822948303e-03      -7.215831650235e-03       0.000000000000e+00
      1.846140739389e-03      -9.939989050284e-03       0.000000000000e+00
      2.113694110983e-03      -1.281107464903e-02       0.000000000000e+00
      2.327139984191e-03      -1.582596097000e-02       0.000000000000e+00
      2.494092643607e-03      -1.898387566312e-02       0.000000000000e+00
      2.620506370872e-03      -2.228611752237e-02       0.000000000000e+00
      2.710975225782e-03      -2.573583487409e-02       0.000000000000e+00
      2.768950254740e-03      -2.933784922121e-02       0.000000000000e+00
      2.796872982149e-03      -3.309849724260e-02       0.000000000000e+00
      2.796226331625e-03      -3.702544541091e-02       0.000000000000e+00
      2.767474316374e-03      -4.112741171366e-02       0.000000000000e+00
      2.709906809618e-03      -4.541368892612e-02       0.000000000000e+00
      2.621341487804e-03      -4.989321166168e-02       0.000000000000e+00
      2.497587427579e-03      -5.457317178107e-02       0.000000000000e+00
      2.332295531665e-03      -5.945566803652e-02       0.000000000000e+00
      2.115329063686e-03      -6.453433056317e-02       0.000000000000e+00
      1.835570694001e-03      -6.978374775879e-02       0.000000000000e+00
      1.476699383548e-03      -7.514954574199e-02       0.000000000000e+00
      0.000000000000e+00       0.000000000000e+00       0.000000000000e+00
      8.881784197001e-16      -2.282965910416e-03       0.000000000000e+00
      0.000000000000e+00      -4.741926992005e-03       0.000000000000e+00
      0.000000000000e+00      -7.362200979138e-03       0.000000000000e+00
      0.000000000000e+00      -1.013356012172e-02       0.000000000000e+00
      8.881784197001e-16      -1.304932577980e-02       0.000000000000e+00
      8.881784197001e-16      -1.610585033621e-02       0.000000000000e+00
      0.000000000000e+00      -1.930204376780e-02       0.000000000000e+00
      0.000000000000e+00      -2.263902021113e-02       0.000000000000e+00
      0.000000000000e+00      -2.611981259798e-02       0.000000000000e+00
      0.000000000000e+00      -2.974914065352e-02       0.000000000000e+00
     -8.881784197001e-16      -3.353319457508e-02       0.000000000000e+00
     -8.881784197001e-16      -3.747938998250e-02       0.000000000000e+00
      0.000000000000e+00      -4.159601871660e-02       0.000000000000e+00
      8.881784197001e-16      -4.589165236488e-02       0.000000000000e+00
     -8.881784197001e-16      -5.037423454855e-02       0.000000000000e+00
     -8.881784197001e-16      -5.504908479172e-02       0.000000000000e+00
      0.000000000000e+00      -5.991673511364e-02       0.000000000000e+00
      0.000000000000e+00      -6.496656067119e-02       0.000000000000e+00
      8.881784197001e-16      -7.017261499797e-02       0.000000000000e+00
      0.000000000000e+00      -7.548120922637e-02       0.000000000000e+00
      0.000000000000e+00       0.000000000000e+00       0.000000000000e+00
     -6.090275167638e-04      -2.234892170032e-03       0.000000000000e+00
     -1.107546490626e-03      -4.644460892141e-03       0.000000000000e+00
     -1.514822948304e-03      -7.215831650235e-03       0.000000000000e+00
     -1.846140739388e-03      -9.939989050284e-03       0.000000000000e+00
     -2.113694110982e-03      -1.281107464903e-02       0.000000000000e+00
     -2.327139984191e-03      -1.582596097000e-02       0.000000000000e+00
     -2.494092643608e-03      -1.898387566312e-02       0.000000000000e+00
     -2.620506370872e-03      -2.228611752237e-02       0.000000000000e+00
     -2.710975225781e-03      -2.573583487409e-02       0.000000000000e+00
     -2.768950254741e-03      -2.933784922121e-02       0.000000000000e+00
     -2.796872982147e-03      -3.309849724260e-02       0.000000000000e+00
     -2.796226331625e-03      -3.702544541091e-02       0.000000000000e+00
     -2.767474316374e-03      -4.112741171366e-02       0.000000000000e+00
     -2.709906809617e-03      -4.541368892613e-02       0.000000000000e+00
     -2.621341487803e-03      -4.989321166168e-02       0.000000000000e+00
     -2.497587427579e-03      -5.457317178107e-02       0.000000000000e+00
     -2.332295531665e-03      -5.945566803652e-02       0.000000000000e+00
     -2.115329063686e-03      -6.453433056317e-02       0.000000000000e+00
     -1.835570694000e-03      -6.978374775879e-02       0.000000000000e+00
     -1.476699383548e-03      -7.514954574199e-02       0.000000000000e+00
      0.000000000000e+00       0.000000000000e+00       0.000000000000e+00
     -1.163034537705e-03      -2.096459860630e-03       0.000000000000e+00
     -2.122537051653e-03      -4.363368296316e-03       0.000000000000e+00
     -2.912212003656e-03      -6.792950036529e-03       0.000000000000e+00
     -3.559105971207e-03      -9.379735195692e-03       0.000000000000e+00
     -4.084975968434e-03      -1.212027481916e-02       0.000000000000e+00
     -4.507222004201e-03      -1.501301185134e-02       0.000000000000e+00
     -4.839701252111e-03      -1.805814769954e-02       0.000000000000e+00
     -5.093381626321e-03      -2.125755960463e-02       0.000000000000e+00
     -5.276854846726e-03      -2.461475136920e-02       0.000000000000e+00
     -5.396710559983e-03      -2.813483734444e-02       0.000000000000e+00
     -5.457768373825e-03      -3.182454267548e-02       0.000000000000e+00
     -5.463144426118e-03      -3.569219531717e-02       0.000000000000e+00
     -5.414151443150e-03      -3.974765125136e-02       0.000000000000e+00