# vtk DataFile Version 3.0
truss_with_no_constant_cross_section_C0_01.vtk
ASCII
DATASET UNSTRUCTURED_GRID
FIELD FieldData 2
TIME 1 1 double
0.000000e+00
CYCLE 1 1 int
1
POINTS 562 double
      0.000000000000e+00       5.000000000000e+00       0.000000000000e+00
      1.600000000000e-01       4.800000000000e+00       0.000000000000e+00
      3.200000000000e-01       4.600000000000e+00       0.000000000000e+00
      4.800000000000e-01       4.400000000000e+00       0.000000000000e+00
      6.400000000000e-01       4.200000000000e+00       0.000000000000e+00
      8.000000000000e-01       4.000000000000e+00       0.000000000000e+00
      9.600000000000e-01       3.800000000000e+00       0.000000000000e+00
      1.120000000000e+00       3.600000000000e+00       0.000000000000e+00
      1.280000000000e+00       3.400000000000e+00       0.000000000000e+00
      1.440000000000e+00       3.200000000000e+00       0.000000000000e+00
      1.600000000000e+00       3.000000000000e+00       0.000000000000e+00
      1.760000000000e+00       2.800000000000e+00       0.000000000000e+00
      1.920000000000e+00       2.600000000000e+00       0.000000000000e+00
      2.080000000000e+00       2.400000000000e+00       0.000000000000e+00
      2.240000000000e+00       2.200000000000e+00       0.000000000000e+00
      2.400000000000e+00       2.000000000000e+00       0.000000000000e+00
      2.560000000000e+00       1.800000000000e+00       0.000000000000e+00
      2.720000000000e+00       1.600000000000e+00       0.000000000000e+00
      2.880000000000e+00       1.400000000000e+00       0.000000000000e+00
      3.040000000000e+00       1.200000000000e+00       0.000000000000e+00
      3.200000000000e+00       1.000000000000e+00       0.000000000000e+00
      5.000000000000e-01       5.000000000000e+00       0.000000000000e+00
      6.440000000000e-01       4.800000000000e+00       0.000000000000e+00
      7.880000000000e-01       4.600000000000e+00       0.000000000000e+00
      9.320000000000e-01       4.400000000000e+00       0.000000000000e+00
      1.076000000000e+00       4.200000000000e+00       0.000000000000e+00
      1.220000000000e+00       4.000000000000e+00       0.000000000000e+00
      1.364000000000e+00       3.800000000000e+00       0.000000000000e+00
      1.508000000000e+00       3.600000000000e+00       0.000000000000e+00
      1.652000000000e+00       3.400000000000e+00       0.000000000000e+00
      1.796000000000e+00       3.200000000000e+00       0.000000000000e+00
      1.940000000000e+00       3.000000000000e+00       0.000000000000e+00
      2.084000000000e+00       2.800000000000e+00       0.000000000000e+00
      2.228000000000e+00       2.600000000000e+00       0.000000000000e+00
      2.372000000000e+00       2.400000000000e+00       0.000000000000e+00
      2.516000000000e+00       2.200000000000e+00       0.000000000000e+00
      2.660000000000e+00       2.000000000000e+00       0.000000000000e+00
      2.804000000000e+00       1.800000000000e+00       0.000000000000e+00
      2.948000000000e+00       1.600000000000e+00       0.000000000000e+00
      3.092000000000e+00       1.400000000000e+00       0.000000000000e+00
      3.236000000000e+00       1.200000000000e+00       0.000000000000e+00
      3.380000000000e+00       1.000000000000e+00       0.000000000000e+00
      1.000000000000e+00       5.000000000000e+00       0.000000000000e+00
      1.128000000000e+00       4.800000000000e+00       0.000000000000e+00
      1.256000000000e+00       4.600000000000e+00       0.000000000000e+00
      1.384000000000e+00       4.400000000000e+00       0.000000000000e+00
      1.512000000000e+00       4.200000000000e+00       0.000000000000e+00
      1.640000000000e+00       4.000000000000e+00       0.000000000000e+00
      1.768000000000e+00       3.800000000000e+00       0.000000000000e+00
      1.896000000000e+00       3.600000000000e+00       0.000000000000e+00
      2.024000000000e+00       3.400000000000e+00       0.000000000000e+00
      2.152000000000e+00       3.200000000000e+00       0.000000000000e+00
      2.280000000000e+00       3.000000000000e+00       0.000000000000e+00
      2.408000000000e+00       2.800000000000e+00       0.000000000000e+00
      2.536000000000e+00       2.600000000000e+00       0.000000000000e+00
      2.664000000000e+00       2.400000000000e+00       0.000000000000e+00
      2.792000000000e+00       2.200000000000e+00       0.000000000000e+00
      2.920000000000e+00       2.000000000000e+00       0.000000000000e+00
      3.048000000000e+00       1.800000000000e+00       0.000000000000e+00
      3.176000000000e+00       1.600000000000e+00       0.000000000000e+00
      3.304000000000e+00       1.400000000000e+00       0.000000000000e+00
      3.432000000000e+00       1.200000000000e+00       0.000000000000e+00
      3.560000000000e+00       1.000000000000e+00       0.000000000000e+00
      1.500000000000e+00       5.000000000000e+00       0.000000000000e+00
      1.612000000000e+00       4.800000000000e+00       0.000000000000e+00
      1.724000000000e+00       4.600000000000e+00       0.000000000000e+00
      1.836000000000e+00       4.400000000000e+00       0.000000000000e+00
      1.948000000000e+00       4.200000000000e+00       0.000000000000e+00
      2.060000000000e+00       4.000000000000e+00       0.000000000000e+00
      2.172000000000e+00       3.800000000000e+00       0.000000000000e+00
      2.284000000000e+00       3.600000000000e+00       0.000000000000e+00
      2.396000000000e+00       3.400000000000e+00       0.000000000000e+00
      2.508000000000e+00       3.200000000000e+00       0.000000000000e+00
      2.620000000000e+00       3.000000000000e+00       0.000000000000e+00
      2.732000000000e+00       2.800000000000e+00       0.000000000000e+00
      2.844000000000e+00       2.600000000000e+00       0.000000000000e+00
      2.956000000000e+00       2.400000000000e+00       0.000000000000e+00
      3.068000000000e+00       2.200000000000e+00       0.000000000000e+00
      3.180000000000e+00       2.000000000000e+00       0.000000000000e+00
      3.292000000000e+00       1.800000000000e+00       0.000000000000e+00
      3.404000000000e+00       1.600000000000e+00       0.000000000000e+00
      3.516000000000e+00       1.400000000000e+00       0.000000000000e+00
      3.628000000000e+00       1.200000000000e+00       0.000000000000e+00
      3.740000000000e+00       1.000000000000e+00       0.000000000000e+00
      2.000000000000e+00       5.000000000000e+00       0.000000000000e+00
      2.096000000000e+00       4.800000000000e+00       0.000000000000e+00
      2.192000000000e+00       4.600000000000e+00       0.000000000000e+00
      2.288000000000e+00       4.400000000000e+00       0.000000000000e+00
      2.384000000000e+00       4.200000000000e+00       0.000000000000e+00
      2.480000000000e+00       4.000000000000e+00       0.000000000000e+00
      2.576000000000e+00       3.800000000000e+00       0.000000000000e+00
      2.672000000000e+00       3.600000000000e+00       0.000000000000e+00
      2.768000000000e+00       3.400000000000e+00       0.000000000000e+00
      2.864000000000e+00       3.200000000000e+00       0.000000000000e+00
      2.960000000000e+00       3.000000000000e+00       0.000000000000e+00
      3.056000000000e+00       2.800000000000e+00       0.000000000000e+00
      3.152000000000e+00       2.600000000000e+00       0.000000000000e+00
      3.248000000000e+00       2.400000000000e+00       0.000000000000e+00
      3.344000000000e+00       2.200000000000e+00       0.000000000000e+00
      3.440000000000e+00       2.000000000000e+00       0.000000000000e+00
      3.536000000000e+00       1.800000000000e+00       0.000000000000e+00
      3.632000000000e+00       1.600000000000e+00       0.000000000000e+00
      3.728000000000e+00       1.400000000000e+00       0.000000000000e+00
      3.824000000000e+00       1.200000000000e+00       0.000000000000e+00
      3.920000000000e+00       1.000000000000e+00       0.000000000000e+00
      2.500000000000e+00       5.000000000000e+00       0.000000000000e+00
      2.580000000000e+00       4.800000000000e+00       0.000000000000e+00
      2.660000000000e+00       4.600000000000e+00       0.000000000000e+00
      2.740000000000e+00       4.400000000000e+00       0.000000000000e+00
      2.820000000000e+00       4.200000000000e+00       0.000000000000e+00
      2.900000000000e+00       4.000000000000e+00       0.000000000000e+00
      2.980000000000e+00       3.800000000000e+00       0.000000000000e+00
      3.060000000000e+00       3.600000000000e+00       0.000000000000e+00
      3.140000000000e+00       3.400000000000e+00       0.000000000000e+00
      3.220000000000e+00       3.200000000000e+00       0.000000000000e+00
      3.300000000000e+00       3.000000000000e+00       0.000000000000e+00
      3.380000000000e+00       2.800000000000e+00       0.000000000000e+00
      3.460000000000e+00       2.600000000000e+00       0.000000000000e+00
      3.540000000000e+00       2.400000000000e+00       0.000000000000e+00
      3.620000000000e+00       2.200000000000e+00       0.000000000000e+00
      3.700000000000e+00       2.000000000000e+00       0.000000000000e+00
      3.780000000000e+00       1.800000000000e+00       0.000000000000e+00
      3.860000000000e+00       1.600000000000e+00       0.000000000000e+00
      3.940000000000e+00       1.400000000000e+00       0.000000000000e+00
      4.020000000000e+00       1.200000000000e+00       0.000000000000e+00
      4.100000000000e+00       1.000000000000e+00       0.000000000000e+00
      3.000000000000e+00       5.000000000000e+00       0.000000000000e+00
      3.064000000000e+00       4.800000000000e+00       0.000000000000e+00
      3.128000000000e+00       4.600000000000e+00       0.000000000000e+00
      3.192000000000e+00       4.400000000000e+00       0.000000000000e+00
[...]
POINT_DATA 562
VECTORS DSPL double
      0.000000000000e+00       0.000000000000e+00       0.000000000000e+00
      0.000000000000e+00       0.000000000000e+00       0.000000000000e+00
      0.000000000000e+00       0.000000000000e+00       0.000000000000e+00
      0.000000000000e+00       0.000000000000e+00       0.000000000000e+00
      0.000000000000e+00       0.000000000000e+00       0.000000000000e+00
      0.000000000000e+00       0.000000000000e+00       0.000000000000e+00
      0.000000000000e+00       0.000000000000e+00       0.000000000000e+00
      0.000000000000e+00       0.000000000000e+00       0.000000000000e+00
      0.000000000000e+00       0.000000000000e+00       0.000000000000e+00
      0.000000000000e+00       0.000000000000e+00       0.000000000000e+00
      0.000000000000e+00       0.000000000000e+00       0.000000000000e+00
      0.000000000000e+00       0.000000000000e+00       0.000000000000e+00
      0.000000000000e+00       0.000000000000e+00       0.000000000000e+00
      0.000000000000e+00       0.000000000000e+00       0.000000000000e+00
      0.000000000000e+00       0.000000000000e+00       0.000000000000e+00
      0.000000000000e+00       0.000000000000e+00       0.000000000000e+00
      0.000000000000e+00       0.000000000000e+00       0.000000000000e+00
      0.000000000000e+00       0.000000000000e+00       0.000000000000e+00
      0.000000000000e+00       0.000000000000e+00       0.000000000000e+00
      0.000000000000e+00       0.000000000000e+00       0.000000000000e+00
      0.000000000000e+00       0.000000000000e+00       0.000000000000e+00
      0.000000000000e+00       0.000000000000e+00       0.000000000000e+00
      0.000000000000e+00       0.000000000000e+00       0.000000000000e+00
      0.000000000000e+00       0.000000000000e+00       0.000000000000e+00
      0.000000000000e+00       0.000000000000e+00       0.000000000000e+00
      0.000000000000e+00       0.000000000000e+00       0.000000000000e+00
      0.000000000000e+00       0.000000000000e+00       0.000000000000e+00
      0.000000000000e+00       0.000000000000e+00       0.000000000000e+00
      0.000000000000e+00       0.000000000000e+00       0.000000000000e+00
      0.000000000000e+00       0.000000000000e+00       0.000000000000e+00
      0.000000000000e+00       0.000000000000e+00       0.000000000000e+00
      0.000000000000e+00       0.000000000000e+00       0.000000000000e+00
      0.000000000000e+00       0.000000000000e+00       0.000000000000e+00
      0.000000000000e+00       0.000000000000e+00       0.000000000000e+00
      0.000000000000e+00       0.000000000000e+00       0.000000000000e+00
      0.000000000000e+00       0.000000000000e+00       0.000000000000e+00
      0.000000000000e+00       0.000000000000e+00       0.000000000000e+00
      0.000000000000e+00       0.000000000000e+00       0.000000000000e+00
      0.000000000000e+00       0.000000000000e+00       0.000000000000e+00
      0.000000000000e+00       0.000000000000e+00       0.000000000000e+00
      0.000000000000e+00       0.000000000000e+00       0.000000000000e+00
      0.000000000000e+00       0.000000000000e+00       0.000000000000e+00
      0.000000000000e+00       0.000000000000e+00       0.000000000000e+00
      0.000000000000e+00       0.000000000000e+00       0.000000000000e+00
      0.000000000000e+00       0.000000000000e+00       0.000000000000e+00
      0.000000000000e+00       0.000000000000e+00       0.000000000000e+00
      0.000000000000e+00       0.000000000000e+00       0.000000000000e+00
      0.000000000000e+00       0.000000000000e+00       0.000000000000e+00
      0.000000000000e+00       0.000000000000e+00       0.000000000000e+00
      0.000000000000e+00       0.000000000000e+00       0.000000000000e+00
      0.000000000000e+00       0.000000000000e+00       0.000000000000e+00
      0.000000000000e+00       0.000000000000e+00       0.000000000000e+00
      0.000000000000e+00       0.000000000000e+00       0.000000000000e+00
      0.000000000000e+00       0.000000000000e+00       0.000000000000e+00
      0.000000000000e+00       0.000000000000e+00       0.000000000000e+00
      0.000000000000e+00       0.000000000000e+00       0.000000000000e+00
      0.000000000000e+00       0.000000000000e+00       0.000000000000e+00
      0.000000000000e+00       0.000000000000e+00       0.000000000000e+00
      0.000000000000e+00       0.000000000000e+00       0.000000000000e+00
      0.000000000000e+00       0.000000000000e+00       0.000000000000e+00
      0.000000000000e+00       0.000000000000e+00       0.000000000000e+00
      0.000000000000e+00       0.000000000000e+00       0.000000000000e+00
      0.000000000000e+00       0.000000000000e+00       0.000000000000e+00
      0.000000000000e+00       0.000000000000e+00       0.000000000000e+00
      0.000000000000e+00       0.000000000000e+00       0.000000000000e+00
      0.000000000000e+00       0.000000000000e+00       0.000000000000e+00
      0.000000000000e+00       0.000000000000e+00       0.000000000000e+00
      0.000000000000e+00       0.000000000000e+00       0.000000000000e+00
      0.000000000000e+00       0.000000000000e+00       0.000000000000e+00
      0.000000000000e+00       0.000000000000e+00       0.000000000000e+00
      0.000000000000e+00       0.000000000000e+00       0.000000000000e+00
      0.000000000000e+00       0.000000000000e+00       0.000000000000e+00
      0.000000000000e+00       0.000000000000e+00       0.000000000000e+00
      0.000000000000e+00       0.000000000000e+00       0.000000000000e+00
      0.000000000000e+00       0.000000000000e+00       0.000000000000e+00
      0.000000000000e+00       0.000000000000e+00       0.000000000000e+00
      0.000000000000e+00       0.000000000000e+00       0.000000000000e+00
      0.000000000000e+00       0.000000000000e+00       0.000000000000e+00
      0.000000000000e+00       0.000000000000e+00       0.000000000000e+00
      0.000000000000e+00       0.000000000000e+00       0.000000000000e+00
      0.000000000000e+00       0.000000000000e+00       0.000000000000e+00
      0.000000000000e+00       0.000000000000e+00       0.000000000000e+00
      0.000000000000e+00       0.000000000000e+00       0.000000000000e+00
      0.000000000000e+00       0.000000000000e+00       0.000000000000e+00
      0.000000000000e+00       0.000000000000e+00       0.000000000000e+00
      0.000000000000e+00       0.000000000000e+00       0.000000000000e+00
      0.000000000000e+00       0.000000000000e+00       0.000000000000e+00
      0.000000000000e+00       0.000000000000e+00       0.000000000000e+00
      0.000000000000e+00       0.000000000000e+00       0.000000000000e+00
      0.000000000000e+00       0.000000000000e+00       0.000000000000e+00
      0.000000000000e+00       0.000000000000e+00       0.000000000000e+00
      0.000000000000e+00       0.000000000000e+00       0.000000000000e+00
      0.000000000000e+00       0.000000000000e+00       0.000000000000e+00
      0.000000000000e+00       0.000000000000e+00       0.000000000000e+00
      0.000000000000e+00       0.000000000000e+00       0.000000000000e+00
      0.000000000000e+00       0.000000000000e+00       0.000000000000e+00
      0.000000000000e+00       0.000000000000e+00       0.000000000000e+00
      0.000000000000e+00       0.000000000000e+00       0.000000000000e+00
      0.000000000000e+00       0.000000000000e+00       0.000000000000e+00
      0.000000000000e+00       0.000000000000e+00       0.000000000000e+00
      0.000000000000e+00       0.000000000000e+00       0.000000000000e+00
      0.000000000000e+00       0.000000000000e+00       0.000000000000e+00
      0.000000000000e+00       0.000000000000e+00       0.000000000000e+00
      0.000000000000e+00       0.000000000000e+00       0.000000000000e+00
      0.000000000000e+00       0.000000000000e+00       0.000000000000e+00
      0.000000000000e+00       0.000000000000e+00       0.000000000000e+00
      0.000000000000e+00       0.000000000000e+00       0.000000000000e+00
      0.000000000000e+00       0.000000000000e+00       0.000000000000e+00
      0.000000000000e+00       0.000000000000e+00       0.000000000000e+00
      0.000000000000e+00       0.000000000000e+00       0.000000000000e+00
      0.000000000000e+00       0.000000000000e+00       0.000000000000e+00
      0.000000000000e+00       0.000000000000e+00       0.000000000000e+00
      0.000000000000e+00       0.000000000000e+00       0.000000000000e+00
      0.000000000000e+00       0.000000000000e+00       0.000000000000e+00
      0.000000000000e+00       0.000000000000e+00       0.000000000000e+00
      0.000000000000e+00       0.000000000000e+00       0.000000000000e+00
      0.000000000000e+00       0.000000000000e+00       0.000000000000e+00
      0.000000000000e+00       0.000000000000e+00       0.000000000000e+00
      0.000000000000e+00       0.000000000000e+00       0.000000000000e+00
      0.000000000000e+00       0.000000000000e+00       0.000000000000e+00
      0.000000000000e+00       0.000000000000e+00       0.000000000000e+00
      0.000000000000e+00       0.000000000000e+00       0.000000000000e+00
      0.000000000000e+00       0.000000000000e+00       0.000000000000e+00
      0.000000000000e+00       0.000000000000e+00       0.000000000000e+00
      0.000000000000e+00       0.000000000000e+00       0.000000000000e+00
      0.000000000000e+00       0.000000000000e+00       0.000000000000e+00
      0.000000000000e+00       0.000000000000e+00       0.000000000000e+00
      0.000000000000e+00       0.000000000000e+00       0.000000000000e+00
      0.000000000000e+00       0.000000000000e+00       0.000000000000e+00
      0.000000000000e+00       0.000000000000e+00       0.000000000000e+00
      0.000000000000e+00       0.000000000000e+00       0.000000000000e+00
      0.000000000000e+00       0.000000000000e+00       0.000000000000e+00
      0.000000000000e+00       0.000000000000e+00       0.000000000000e+00
      0.000000000000e+00       0.000000000000e+00       0.000000000000e+00
      0.000000000000e+00       0.000000000000e+00       0.000000000000e+00
      0.000000000000e+00       0.000000000000e+00       0.000000000000e+00
      0.000000000000e+00       0.000000000000e+00       0.000000000000e+00
      0.000000000000e+00       0.000000000000e+00       0.000000000000e+00
      0.000000000000e+00       0.000000000000e+00       0.000000000000e+00
      0.000000000000e+00       0.000000000000e+00       0.000000000000e+00
      0.000000000000e+00       0.000000000000e+00       0.000000000000e+00
      0.000000000000e+00       0.000000000000e+00       0.000000000000e+00
      0.000000000000e+00       0.000000000000e+00       0.000000000000e+00
      0.000000000000e+00       0.000000000000e+00       0.000000000000e+00
      0.000000000000e+00       0.000000000000e+00       0.000000000000e+00
      0.000000000000e+00       0.000000000000e+00       0.000000000000e+00
      0.000000000000e+00       0.000000000000e+00       0.000000000000e+00
      0.000000000000e+00       0.000000000000e+00       0.000000000000e+00
      0.000000000000e+00       0.000000000000e+00       0.000000000000e+00
      0.000000000000e+00       0.000000000000e+00       0.000000000000e+00
      0.000000000000e+00       0.000000000000e+00       0.000000000000e+00
      0.000000000000e+00       0.000000000000e+00       0.000000000000e+00
      0.000000000000e+00       0.000000000000e+00       0.000000000000e+00
      0.000000000000e+00       0.000000000000e+00       0.000000000000e+00
      0.000000000000e+00       0.000000000000e+00       0.000000000000e+00
      0.000000000000e+00       0.000000000000e+00       0.000000000000e+00
      0.000000000000e+00       0.000000000000e+00       0.000000000000e+00
      0.000000000000e+00       0.000000000000e+00       0.000000000000e+00
      0.000000000000e+00       0.000000000000e+00       0.000000000000e+00
      0.000000000000e+00       0.000000000000e+00       0.000000000000e+00
      0.000000000000e+00       0.000000000000e+00       0.000000000000e+00
      0.000000000000e+00       0.000000000000e+00       0.000000000000e+00
      0.000000000000e+00       0.000000000000e+00       0.000000000000e+00
      0.000000000000e+00       0.000000000000e+00       0.000000000000e+00
      0.000000000000e+00       0.000000000000e+00       0.000000000000e+00
      0.000000000000e+00       0.000000000000e+00       0.000000000000e+00
      0.000000000000e+00       0.000000000000e+00       0.000000000000e+00
      0.000000000000e+00       0.000000000000e+00       0.000000000000e+00
      0.000000000000e+00       0.000000000000e+00       0.000000000000e+00
      0.000000000000e+00       0.000000000000e+00       0.000000000000e+00
      0.000000000000e+00       0.000000000000e+00       0.000000000000e+00
      0.000000000000e+00       0.000000000000e+00       0.000000000000e+00
      0.000000000000e+00       0.000000000000e+00       0.000000000000e+00
      0.000000000000e+00       0.000000000000e+00       0.000000000000e+00
      0.000000000000e+00       0.000000000000e+00       0.000000000000e+00
      0.000000000000e+00       0.000000000000e+00       0.000000000000e+00
      0.000000000000e+00       0.000000000000e+00       0.000000000000e+00
      0.000000000000e+00       0.000000000000e+00       0.000000000000e+00
      0.000000000000e+00       0.000000000000e+00       0.000000000000e+00
      0.000000000000e+00       0.000000000000e+00       0.000000000000e+00
      0.000000000000e+00       0.000000000000e+00       0.000000000000e+00
      0.000000000000e+00       0.000000000000e+00       0.000000000000e+00
      0.000000000000e+00       0.000000000000e+00       0.000000000000e+00
      0.000000000000e+00       0.000000000000e+00       0.000000000000e+00
      0.000000000000e+00       0.000000000000e+00       0.000000000000e+00
      0.000000000000e+00       0.000000000000e+00       0.000000000000e+00
      0.000000000000e+00       0.000000000000e+00       0.000000000000e+00
      0.000000000000e+00       0.000000000000e+00       0.000000000000e+00
      0.000000000000e+00       0.000000000000e+00       0.000000000000e+00
      0.000000000000e+00       0.000000000000e+00       0.000000000000e+00
      0.000000000000e+00       0.000000000000e+00       0.000000000000e+00
      0.000000000000e+00       0.000000000000e+00       0.000000000000e+00
      0.000000000000e+00       0.000000000000e+00       0.000000000000e+00
      0.000000000000e+00       0.000000000000e+00       0.000000000000e+00
      0.000000000000e+00       0.000000000000e+00       0.000000000000e+00
      0.000000000000e+00       0.000000000000e+00       0.000000000000e+00
      0.000000000000e+00       0.000000000000e+00       0.000000000000e+00
      0.000000000000e+00       0.000000000000e+00       0.000000000000e+00
      0.000000000000e+00       0.000000000000e+00       0.000000000000e+00
      0.000000000000e+00       0.000000000000e+00       0.000000000000e+00
      0.000000000000e+00       0.000000000000e+00       0.000000000000e+00
      0.000000000000e+00       0.000000000000e+00       0.000000000000e+00
      0.000000000000e+00       0.000000000000e+00       0.000000000000e+00
      0.000000000000e+00       0.000000000000e+00       0.000000000000e+00
      0.000000000000e+00       0.000000000000e+00       0.000000000000e+00
      0.000000000000e+00       0.000000000000e+00       0.000000000000e+00
      0.000000000000e+00       0.000000000000e+00       0.000000000000e+00
      0.000000000000e+00       0.000000000000e+00       0.000000000000e+00
      0.000000000000e+00       0.000000000000e+00       0.000000000000e+00
      0.000000000000e+00       0.000000000000e+00       0.000000000000e+00
      0.000000000000e+00       0.000000000000e+00       0.000000000000e+00
      0.000000000000e+00       0.000000000000e+00       0.000000000000e+00
      0.000000000000e+00       0.000000000000e+00       0.000000000000e+00
      0.000000000000e+00       0.000000000000e+00       0.000000000000e+00
      0.000000000000e+00       0.000000000000e+00       0.000000000000e+00
      0.000000000000e+00       0.000000000000e+00       0.000000000000e+00
      0.000000000000e+00       0.000000000000e+00       0.000000000000e+00
      0.000000000000e+00       0.000000000000e+00       0.000000000000e+00
      0.000000000000e+00       0.000000000000e+00       0.000000000000e+00
      0.000000000000e+00       0.000000000000e+00       0.000000000000e+00
      0.000000000000e+00       0.000000000000e+00       0.000000000000e+00
      0.000000000000e+00       0.000000000000e+00       0.000000000000e+00
      0.000000000000e+00       0.000000000000e+00       0.000000000000e+00
      0.000000000000e+00       0.000000000000e+00       0.000000000000e+00
      0.000000000000e+00       0.000000000000e+00       0.000000000000e+00
      0.000000000000e+00       0.000000000000e+00       0.000000000000e+00
      0.000000000000e+00       0.000000000000e+00       0.000000000000e+00
      0.000000000000e+00       0.000000000000e+00       0.000000000000e+00
      0.000000000000e+00       0.000000000000e+00       0.000000000000e+00
      0.000000000000e+00       0.000000000000e+00       0.000000000000e+00
      0.000000000000e+00       0.000000000000e+00       0.000000000000e+00
      0.000000000000e+00       0.000000000000e+00       0.000000000000e+00
      0.000000000000e+00       0.000000000000e+00       0.000000000000e+00
      0.000000000000e+00       0.000000000000e+00       0.000000000000e+00
      0.000000000000e+00       0.000000000000e+00       0.000000000000e+00
      0.000000000000e+00       0.000000000000e+00       0.000000000000e+00
      0.000000000000e+00       0.000000000000e+00       0.000000000000e+00
      0.000000000000e+00       0.000000000000e+00       0.000000000000e+00
      0.000000000000e+00       0.000000000000e+00       0.000000000000e+00
      0.000000000000e+00       0.000000000000e+00       0.000000000000e+00
      0.000000000000e+00       0.000000000000e+00       0.000000000000e+00
      0.000000000000e+00       0.000000000000e+00       0.000000000000e+00
      0.000000000000e+00       0.000000000000e+00       0.000000000000e+00
      0.000000000000e+00       0.000000000000e+00       0.000000000000e+00
      0.000000000000e+00       0.000000000000e+00       0.000000000000e+00
      0.000000000000e+00       0.000000000000e+00       0.000000000000e+00
      0.000000000000e+00       0.000000000000e+00       0.000000000000e+00
      0.000000000000e+00       0.000000000000e+00       0.000000000000e+00
      0.000000000000e+00       0.000000000000e+00       0.000000000000e+00
      0.000000000000e+00       0.000000000000e+00       0.000000000000e+00
      0.000000000000e+00       0.000000000000e+00       0.000000000000e+00
      0.000000000000e+00       0.000000000000e+00       0.000000000000e+00
      0.000000000000e+00       0.000000000000e+00       0.000000000000e+00
      0.000000000000e+00       0.000000000000e+00       0.000000000000e+00
      0.000000000000e+00       0.000000000000e+00       0.000000000000e+00
      0.000000000000e+00       0.000000000000e+00       0.000000000000e+00
      0.000000000000e+00       0.000000000000e+00       0.000000000000e+00
      0.000000000000e+00       0.000000000000e+00       0.000000000000e+00
      0.000000000000e+00       0.000000000000e+00       0.000000000000e+00
      0.000000000000e+00       0.000000000000e+00       0.000000000000e+00
      0.000000000000e+00       0.000000000000e+00       0.000000000000e+00
      0.000000000000e+00       0.000000000000e+00       0.000000000000e+00
      0.000000000000e+00       0.000000000000e+00       0.000000000000e+00
      0.000000000000e+00       0.000000000000e+00       0.000000000000e+00
      0.000000000000e+00       0.000000000000e+00       0.000000000000e+00
      0.000000000000e+00       0.000000000000e+00       0.000000000000e+00