# vtk DataFile Version 3.0
truss_with_no_constant_cross_section_C1_02.vtk
ASCII
DATASET UNSTRUCTURED_GRID
FIELD FieldData 2
TIME 1 1 double
1.000000e+00
CYCLE 1 1 int
2
POINTS 562 double
      0.000000000000e+00       5.000000000000e+00       0.000000000000e+00
      1.600000000000e-01       4.800000000000e+00       0.000000000000e+00
      3.200000000000e-01       4.600000000000e+00       0.000000000000e+00
      4.800000000000e-01       4.400000000000e+00       0.000000000000e+00
      6.400000000000e-01       4.200000000000e+00       0.000000000000e+00
      8.000000000000e-01       4.000000000000e+00       0.000000000000e+00
      9.600000000000e-01       3.800000000000e+00       0.000000000000e+00
      1.120000000000e+00       3.600000000000e+00       0.000000000000e+00
      1.280000000000e+00       3.400000000000e+00       0.000000000000e+00
      1.440000000000e+00       3.200000000000e+00       0.000000000000e+00
      1.600000000000e+00       3.000000000000e+00       0.000000000000e+00
      1.760000000000e+00       2.800000000000e+00       0.000000000000e+00
      1.920000000000e+00       2.600000000000e+00       0.000000000000e+00
      2.080000000000e+00       2.400000000000e+00       0.000000000000e+00
      2.240000000000e+00       2.200000000000e+00       0.000000000000e+00
      2.400000000000e+00       2.000000000000e+00       0.000000000000e+00
      2.560000000000e+00       1.800000000000e+00       0.000000000000e+00
      2.720000000000e+00       1.600000000000e+00       0.000000000000e+00
      2.880000000000e+00       1.400000000000e+00       0.000000000000e+00
      3.040000000000e+00       1.200000000000e+00       0.000000000000e+00
      3.200000000000e+00       1.000000000000e+00       0.000000000000e+00
      5.000000000000e-01       5.000000000000e+00       0.000000000000e+00
      6.440000000000e-01       4.800000000000e+00       0.000000000000e+00
      7.880000000000e-01       4.600000000000e+00       0.000000000000e+00
      9.320000000000e-01       4.400000000000e+00       0.000000000000e+00
      1.076000000000e+00       4.200000000000e+00       0.000000000000e+00
      1.220000000000e+00       4.000000000000e+00       0.000000000000e+00
      1.364000000000e+00       3.800000000000e+00       0.000000000000e+00
      1.508000000000e+00       3.600000000000e+00       0.000000000000e+00
      1.652000000000e+00       3.400000000000e+00       0.000000000000e+00
      1.796000000000e+00       3.200000000000e+00       0.000000000000e+00
      1.940000000000e+00       3.000000000000e+00       0.000000000000e+00
      2.084000000000e+00       2.800000000000e+00       0.000000000000e+00
      2.228000000000e+00       2.600000000000e+00       0.000000000000e+00
      2.372000000000e+00       2.400000000000e+00       0.000000000000e+00
      2.516000000000e+00       2.200000000000e+00       0.000000000000e+00
      2.660000000000e+00       2.000000000000e+00       0.000000000000e+00
      2.804000000000e+00       1.800000000000e+00       0.000000000000e+00
      2.948000000000e+00       1.600000000000e+00       0.000000000000e+00
      3.092000000000e+00       1.400000000000e+00       0.000000000000e+00
      3.236000000000e+00       1.200000000000e+00       0.000000000000e+00
      3.380000000000e+00       1.000000000000e+00       0.000000000000e+00
      1.000000000000e+00       5.000000000000e+00       0.000000000000e+00
      1.128000000000e+00       4.800000000000e+00       0.000000000000e+00
      1.256000000000e+00       4.600000000000e+00       0.000000000000e+00
      1.384000000000e+00       4.400000000000e+00       0.000000000000e+00
      1.512000000000e+00       4.200000000000e+00       0.000000000000e+00
      1.640000000000e+00       4.000000000000e+00       0.000000000000e+00
      1.768000000000e+00       3.800000000000e+00       0.000000000000e+00
      1.896000000000e+00       3.600000000000e+00       0.000000000000e+00
      2.024000000000e+00       3.400000000000e+00       0.000000000000e+00
      2.152000000000e+00       3.200000000000e+00       0.000000000000e+00
      2.280000000000e+00       3.000000000000e+00       0.000000000000e+00
      2.408000000000e+00       2.800000000000e+00       0.000000000000e+00
      2.536000000000e+00       2.600000000000e+00       0.000000000000e+00
      2.664000000000e+00       2.400000000000e+00       0.000000000000e+00
      2.792000000000e+00       2.200000000000e+00       0.000000000000e+00
      2.920000000000e+00       2.000000000000e+00       0.000000000000e+00
      3.048000000000e+00       1.800000000000e+00       0.000000000000e+00
      3.176000000000e+00       1.600000000000e+00       0.000000000000e+00
      3.304000000000e+00       1.400000000000e+00       0.000000000000e+00
      3.432000000000e+00       1.200000000000e+00       0.000000000000e+00
      3.560000000000e+00       1.000000000000e+00       0.000000000000e+00
      1.500000000000e+00       5.000000000000e+00       0.000000000000e+00
      1.612000000000e+00       4.800000000000e+00       0.000000000000e+00
      1.724000000000e+00       4.600000000000e+00       0.000000000000e+00
      1.836000000000e+00       4.400000000000e+00       0.000000000000e+00
      1.948000000000e+00       4.200000000000e+00       0.000000000000e+00
      2.060000000000e+00       4.000000000000e+00       0.000000000000e+00
      2.172000000000e+00       3.800000000000e+00       0.000000000000e+00
      2.284000000000e+00       3.600000000000e+00       0.000000000000e+00
      2.396000000000e+00       3.400000000000e+00       0.000000000000e+00
      2.508000000000e+00       3.200000000000e+00       0.000000000000e+00
      2.620000000000e+00       3.000000000000e+00       0.000000000000e+00
      2.732000000000e+00       2.800000000000e+00       0.000000000000e+00
      2.844000000000e+00       2.600000000000e+00       0.000000000000e+00
      2.956000000000e+00       2.400000000000e+00       0.000000000000e+00
      3.068000000000e+00       2.200000000000e+00       0.000000000000e+00
      3.180000000000e+00       2.000000000000e+00       0.000000000000e+00
      3.292000000000e+00       1.800000000000e+00       0.000000000000e+00
      3.404000000000e+00       1.600000000000e+00       0.000000000000e+00
      3.516000000000e+00       1.400000000000e+00       0.000000000000e+00
      3.628000000000e+00       1.200000000000e+00       0.000000000000e+00
      3.740000000000e+00       1.000000000000e+00       0.000000000000e+00
      2.000000000000e+00       5.000000000000e+00       0.000000000000e+00
      2.096000000000e+00       4.800000000000e+00       0.000000000000e+00
      2.192000000000e+00       4.600000000000e+00       0.000000000000e+00
      2.288000000000e+00       4.400000000000e+00       0.000000000000e+00
      2.384000000000e+00       4.200000000000e+00       0.000000000000e+00
      2.480000000000e+00       4.000000000000e+00       0.000000000000e+00
      2.576000000000e+00       3.800000000000e+00       0.000000000000e+00
      2.672000000000e+00       3.600000000000e+00       0.000000000000e+00
      2.768000000000e+00       3.400000000000e+00       0.000000000000e+00
      2.864000000000e+00       3.200000000000e+00       0.000000000000e+00
      2.960000000000e+00       3.000000000000e+00       0.000000000000e+00
      3.056000000000e+00       2.800000000000e+00       0.000000000000e+00
      3.152000000000e+00       2.600000000000e+00       0.000000000000e+00
      3.248000000000e+00       2.400000000000e+00       0.000000000000e+00
      3.344000000000e+00       2.200000000000e+00       0.000000000000e+00
      3.440000000000e+00       2.000000000000e+00       0.000000000000e+00
      3.536000000000e+00       1.800000000000e+00       0.000000000000e+00
      3.632000000000e+00       1.600000000000e+00       0.000000000000e+00
      3.728000000000e+00       1.400000000000e+00       0.000000000000e+00
      3.824000000000e+00       1.200000000000e+00       0.000000000000e+00
      3.920000000000e+00       1.000000000000e+00       0.000000000000e+00
      2.500000000000e+00       5.000000000000e+00       0.000000000000e+00
      2.580000000000e+00       4.800000000000e+00       0.000000000000e+00
      2.660000000000e+00       4.600000000000e+00       0.000000000000e+00
      2.740000000000e+00       4.400000000000e+00       0.000000000000e+00
      2.820000000000e+00       4.200000000000e+00       0.000000000000e+00
      2.900000000000e+00       4.000000000000e+00       0.000000000000e+00
      2.980000000000e+00       3.800000000000e+00       0.000000000000e+00
      3.060000000000e+00       3.600000000000e+00       0.000000000000e+00
      3.140000000000e+00       3.400000000000e+00       0.000000000000e+00
      3.220000000000e+00       3.200000000000e+00       0.000000000000e+00
      3.300000000000e+00       3.000000000000e+00       0.000000000000e+00
      3.380000000000e+00       2.800000000000e+00       0.000000000000e+00
      3.460000000000e+00       2.600000000000e+00       0.000000000000e+00
      3.540000000000e+00       2.400000000000e+00       0.000000000000e+00
      3.620000000000e+00       2.200000000000e+00       0.000000000000e+00
      3.700000000000e+00       2.000000000000e+00       0.000000000000e+00
      3.780000000000e+00       1.800000000000e+00       0.000000000000e+00
      3.860000000000e+00       1.600000000000e+00       0.000000000000e+00
      3.940000000000e+00       1.400000000000e+00       0.000000000000e+00
      4.020000000000e+00       1.200000000000e+00       0.000000000000e+00
      4.100000000000e+00       1.000000000000e+00       0.000000000000e+00
      3.000000000000e+00       5.000000000000e+00       0.000000000000e+00
      3.064000000000e+00       4.800000000000e+00       0.000000000000e+00
      3.128000000000e+00       4.600000000000e+00       0.000000000000e+00
      3.192000000000e+00       4.400000000000e+00       0.000000000000e+00
[...]
POINT_DATA 562
VECTORS DSPL double
      0.000000000000e+00       0.000000000000e+00       0.000000000000e+00
      1.425523864864e-03      -5.212606128584e-04       0.000000000000e+00
      3.062678610115e-03      -1.076528094156e-03       0.000000000000e+00
      4.759111639465e-03      -1.609939617076e-03       0.000000000000e+00
      6.439728118872e-03      -2.119598015544e-03       0.000000000000e+00
      8.030097294353e-03      -2.636721637163e-03       0.000000000000e+00
      9.478148646131e-03      -3.206070564681e-03       0.000000000000e+00
      1.074632455814e-02      -3.876830572207e-03       0.000000000000e+00
      1.181181608071e-02      -4.698202077062e-03       0.000000000000e+00
      1.266345351612e-02      -5.716847331862e-03       0.000000000000e+00
      1.329968275959e-02      -6.975777985502e-03       0.000000000000e+00
      1.372626827119e-02      -8.513930431022e-03       0.000000000000e+00
      1.395427246342e-02      -1.036636835986e-02       0.000000000000e+00
      1.399804860443e-02      -1.256490996856e-02       0.000000000000e+00
      1.387349834314e-02      -1.513921470773e-02       0.000000000000e+00
      1.359589529484e-02      -1.811829892278e-02       0.000000000000e+00
      1.317879459437e-02      -2.153288515929e-02       0.000000000000e+00
      1.263010311735e-02      -2.541654087606e-02       0.000000000000e+00
      1.195147312883e-02      -2.981685139431e-02       0.000000000000e+00
      1.113535166051e-02      -3.478491667263e-02       0.000000000000e+00
      1.015004521211e-02      -4.040717306435e-02       0.000000000000e+00
      0.000000000000e+00       0.000000000000e+00       0.000000000000e+00
      1.671911371507e-03      -5.938203798816e-04       0.000000000000e+00
      3.398203817137e-03      -1.157136215247e-03       0.000000000000e+00
      5.130148952046e-03      -1.728272800543e-03       0.000000000000e+00
      6.804167142507e-03      -2.347881243503e-03       0.000000000000e+00
      8.367282234004e-03      -3.056204460076e-03       0.000000000000e+00
      9.778072789046e-03      -3.891135592411e-03       0.000000000000e+00
      1.100745973703e-02      -4.888341744471e-03       0.000000000000e+00
      1.203758242986e-02      -6.080680365851e-03       0.000000000000e+00
      1.286030143717e-02      -7.498275354024e-03       0.000000000000e+00
      1.347546793989e-02      -9.168659713757e-03       0.000000000000e+00
      1.388917465058e-02      -1.111720496385e-02       0.000000000000e+00
      1.411201660938e-02      -1.336774916968e-02       0.000000000000e+00
      1.415743642155e-02      -1.594346710343e-02       0.000000000000e+00
      1.403999401875e-02      -1.886806586873e-02       0.000000000000e+00
      1.377378298494e-02      -2.216727996330e-02       0.000000000000e+00
      1.337062335617e-02      -2.587086860873e-02       0.000000000000e+00
      1.283716007239e-02      -3.001707279767e-02       0.000000000000e+00
      1.217382604869e-02      -3.465336844263e-02       0.000000000000e+00
      1.137278241618e-02      -3.984509398935e-02       0.000000000000e+00
      1.039625557373e-02      -4.571886052727e-02       0.000000000000e+00
      0.000000000000e+00       0.000000000000e+00       0.000000000000e+00
      1.872752274609e-03      -6.659731003662e-04       0.000000000000e+00
      3.723132383040e-03      -1.353108287689e-03       0.000000000000e+00
      5.498586192916e-03      -2.101980416222e-03       0.000000000000e+00
      7.159127778301e-03      -2.951368877731e-03       0.000000000000e+00
      8.672291506205e-03      -3.935483837061e-03       0.000000000000e+00
      1.001392399356e-02      -5.084519953885e-03       0.000000000000e+00
      1.116783286534e-02      -6.424698967221e-03       0.000000000000e+00
      1.212528901693e-02      -7.978939638873e-03       0.000000000000e+00
      1.288407465151e-02      -9.767532458406e-03       0.000000000000e+00
      1.344743032776e-02      -1.180891094410e-02       0.000000000000e+00
      1.382286929847e-02      -1.412048146303e-02       0.000000000000e+00
      1.402097309352e-02      -1.671954136343e-02       0.000000000000e+00
      1.405409500001e-02      -1.962434302631e-02       0.000000000000e+00
      1.393506852135e-02      -2.285539573701e-02       0.000000000000e+00
      1.367574807302e-02      -2.643699732912e-02       0.000000000000e+00
      1.328516066906e-02      -3.040027924483e-02       0.000000000000e+00
      1.276733202637e-02      -3.478484348292e-02       0.000000000000e+00
      1.212088159693e-02      -3.964664560594e-02       0.000000000000e+00
      1.132592224913e-02      -4.507559242925e-02       0.000000000000e+00
      1.033446252920e-02      -5.120853174587e-02       0.000000000000e+00
      0.000000000000e+00       0.000000000000e+00       0.000000000000e+00
      2.049343179471e-03      -8.311464070632e-04       0.000000000000e+00
      3.974244943261e-03      -1.728346128275e-03       0.000000000000e+00
      5.751289867484e-03      -2.729274175286e-03       0.000000000000e+00
      7.361967966444e-03      -3.865301235077e-03       0.000000000000e+00
      8.793344868001e-03      -5.163085872355e-03       0.000000000000e+00
      1.003730433608e-02      -6.644818954973e-03       0.000000000000e+00
      1.109022239822e-02      -8.329066386247e-03       0.000000000000e+00
      1.195245531495e-02      -1.023158073889e-02       0.000000000000e+00
      1.262785703967e-02      -1.236619018451e-02       0.000000000000e+00
      1.312317778376e-02      -1.474570246975e-02       0.000000000000e+00
      1.344739975520e-02      -1.738284196761e-02       0.000000000000e+00
      1.361095883273e-02      -2.029124563516e-02       0.000000000000e+00
      1.362488518300e-02      -2.348659908803e-02       0.000000000000e+00
      1.349974515253e-02      -2.698791562038e-02       0.000000000000e+00
      1.324441291322e-02      -3.081956874754e-02       0.000000000000e+00
      1.286401263989e-02      -3.501317842295e-02       0.000000000000e+00
      1.235938318914e-02      -3.961194307449e-02       0.000000000000e+00
      1.171743099466e-02      -4.467980845767e-02       0.000000000000e+00
      1.091430539079e-02      -5.030165706876e-02       0.000000000000e+00
      9.891010845045e-03      -5.661784093364e-02       0.000000000000e+00
      0.000000000000e+00       0.000000000000e+00       0.000000000000e+00
      2.138684675520e-03      -1.063841876141e-03       0.000000000000e+00
      4.068319223961e-03      -2.231090561661e-03       0.000000000000e+00
      5.789570177703e-03      -3.530267704383e-03       0.000000000000e+00
      7.305716149645e-03      -4.984765247019e-03       0.000000000000e+00
      8.621295985761e-03      -6.613450704538e-03       0.000000000000e+00
      9.742099041628e-03      -8.431602720674e-03       0.000000000000e+00
      1.067496419076e-02      -1.045175643781e-02       0.000000000000e+00
      1.142773204011e-02      -1.268455992580e-02       0.000000000000e+00
      1.200911655225e-02      -1.513961873451e-02       0.000000000000e+00
      1.242853050655e-02      -1.782635051832e-02       0.000000000000e+00
      1.269580110741e-02      -2.075486240132e-02       0.000000000000e+00
      1.282076478014e-02      -2.393689849930e-02       0.000000000000e+00
      1.281267010701e-02      -2.738687936288e-02       0.000000000000e+00
      1.267938511069e-02      -3.112327133293e-02       0.000000000000e+00
      1.242596522167e-02      -3.517009896115e-02       0.000000000000e+00
      1.205379486591e-02      -3.955934920947e-02       0.000000000000e+00
      1.155477447025e-02      -4.433517166608e-02       0.000000000000e+00
      1.091311039861e-02      -4.955567543596e-02       0.000000000000e+00
      1.008305142505e-02      -5.530212683600e-02       0.000000000000e+00
      8.992245287805e-03      -6.168844230403e-02       0.000000000000e+00
      0.000000000000e+00       0.000000000000e+00       0.000000000000e+00
      2.107667439173e-03      -1.337425750433e-03       0.000000000000e+00
      3.948272795959e-03      -2.805063263104e-03       0.000000000000e+00
      5.544525679216e-03      -4.422185707325e-03       0.000000000000e+00
      6.916372907007e-03      -6.203683206935e-03       0.000000000000e+00
      8.081620380815e-03      -8.161390878422e-03       0.000000000000e+00
      9.056091385792e-03      -1.030479058195e-02       0.000000000000e+00
      9.853975769010e-03      -1.264179709205e-02       0.000000000000e+00
      1.048810442978e-02      -1.517946539508e-02       0.000000000000e+00
      1.097019042978e-02      -1.792469391956e-02       0.000000000000e+00
      1.131096576983e-02      -2.088492091753e-02       0.000000000000e+00
      1.152019026101e-02      -2.406884789082e-02       0.000000000000e+00
      1.160648482167e-02      -2.748721331185e-02       0.000000000000e+00
      1.157694432769e-02      -3.115368478873e-02       0.000000000000e+00
      1.143635367798e-02      -3.508591584946e-02       0.000000000000e+00
      1.118629521959e-02      -3.930672466130e-02       0.000000000000e+00
      1.082230856863e-02      -4.384642393742e-02       0.000000000000e+00
      1.033297102790e-02      -4.874297040103e-02       0.000000000000e+00
      9.690716946031e-03      -5.404793047291e-02       0.000000000000e+00
      8.852380078253e-03      -5.982556878824e-02       0.000000000000e+00
      7.736789929163e-03      -6.614421796933e-02       0.000000000000e+00
      0.000000000000e+00       0.000000000000e+00       0.000000000000e+00
      1.934289135215e-03      -1.620331113825e-03       0.000000000000e+00
      3.581942840584e-03      -3.390155531680e-03       0.000000000000e+00
      4.978840070996e-03      -5.318639241311e-03       0.000000000000e+00
      6.155194672810e-03      -7.412838770211e-03       0.000000000000e+00
      7.136343032397e-03      -9.678368700167e-03       0.000000000000e+00
      7.943512396771e-03      -1.211998613079e-02       0.000000000000e+00
      8.594489724486e-03      -1.474211836103e-02       0.000000000000e+00
      9.104223475674e-03      -1.754935024611e-02       0.000000000000e+00
      9.485303995217e-03      -2.054689192152e-02       0.000000000000e+00
      9.748313332262e-03      -2.374105079699e-02       0.000000000000e+00
      9.902008061262e-03      -2.713972462043e-02       0.000000000000e+00
      9.953304885702e-03      -3.075293307443e-02       0.000000000000e+00
      9.906981022145e-03      -3.459342909822e-02       0.000000000000e+00
      9.765126628342e-03      -3.867726424500e-02       0.000000000000e+00
      9.525820908204e-03      -4.302482797913e-02       0.000000000000e+00
      9.181688213363e-03      -4.766062882618e-02       0.000000000000e+00
      8.716892345204e-03      -5.261526713352e-02       0.000000000000e+00
      8.101630715522e-03      -5.792279199982e-02       0.000000000000e+00
      7.294389317063e-03      -6.361142840296e-02       0.000000000000e+00
      6.223268840804e-03      -6.970905004182e-02       0.000000000000e+00
      0.000000000000e+00       0.000000000000e+00       0.000000000000e+00
      1.614822371105e-03      -1.882359994416e-03       0.000000000000e+00
      2.964746948384e-03      -3.927044745408e-03       0.000000000000e+00
      4.089607918644e-03      -6.134030446938e-03       0.000000000000e+00
      5.021873375341e-03      -8.503349459632e-03       0.000000000000e+00
      5.788124863837e-03      -1.103545468826e-02       0.000000000000e+00
      6.409976660856e-03      -1.373142517485e-02       0.000000000000e+00
      6.904975152606e-03      -1.659317744721e-02       0.000000000000e+00
      7.287320550416e-03      -1.962365670320e-02       0.000000000000e+00
      7.568452490066e-03      -2.282703995866e-02       0.000000000000e+00
      7.757474021464e-03      -2.620895368700e-02       0.000000000000e+00
      7.861408269079e-03      -2.977671094358e-02       0.000000000000e+00
      7.885239759264e-03      -3.353957285799e-02       0.000000000000e+00
      7.831746976469e-03      -3.750896807543e-02       0.000000000000e+00
      7.700951570012e-03      -4.169878893706e-02       0.000000000000e+00
      7.489193636270e-03      -4.612517383919e-02       0.000000000000e+00
      7.188071934757e-03      -5.080657431678e-02       0.000000000000e+00
      6.780566903347e-03      -5.576221526054e-02       0.000000000000e+00
      6.244071636084e-03      -6.100710189293e-02       0.000000000000e+00
      5.535502778987e-03      -6.655482804617e-02       0.000000000000e+00
      4.600280239951e-03      -7.238235973541e-02       0.000000000000e+00
      0.000000000000e+00       0.000000000000e+00       0.000000000000e+00
      1.162541855913e-03      -2.094665453547e-03       0.000000000000e+00
      2.121684682050e-03      -4.359686425466e-03       0.000000000000e+00
      2.911136200523e-03      -6.787304690446e-03       0.000000000000e+00
      3.557945938256e-03      -9.372067264525e-03       0.000000000000e+00
      4.083875062750e-03      -1.211054405485e-02       0.000000000000e+00
      4.506329958698e-03      -1.500120061408e-02       0.000000000000e+00
      4.839177036896e-03      -1.804426681034e-02       0.000000000000e+00
      5.093396951920e-03      -2.124165670254e-02       0.000000000000e+00
      5.277596884314e-03      -2.459692279159e-02       0.000000000000e+00
      5.398386525743e-03      -2.811524383562e-02       0.000000000000e+00
      5.460600992858e-03      -3.180343326360e-02       0.000000000000e+00
      5.467381025191e-03      -3.566993154488e-02       0.000000000000e+00
      5.420031978791e-03      -3.972476099480e-02       0.000000000000e+00
      5.317674064080e-03      -4.397928359601e-02       0.000000000000e+00
      5.156772108558e-03      -4.844569358132e-02       0.000000000000e+00
      4.929413987172e-03      -5.313600115300e-02       0.000000000000e+00
      4.624476896295e-03      -5.805907013635e-02       0.000000000000e+00
      4.220102087153e-03      -6.321846901863e-02       0.000000000000e+00
      3.694717324708e-03      -6.860172635697e-02       0.000000000000e+00
      3.016422343828e-03      -7.416356826406e-02       0.000000000000e+00
      0.000000000000e+00       0.000000000000e+00       0.000000000000e+00
      6.088085715792e-04      -2.233058867763e-03       0.000000000000e+00
      1.107167655436e-03      -4.640728242848e-03       0.000000000000e+00
      1.514350744293e-03      -7.210149934333e-03       0.000000000000e+00
      1.845646415079e-03      -9.932328526424e-03       0.000000000000e+00
      2.113252896200e-03      -1.280142992242e-02       0.000000000000e+00
      2.326831434460e-03      -1.581435672073e-02       0.000000000000e+00
      2.494001723935e-03      -1.897037419807e-02       0.000000000000e+00
      2.620724678724e-03      -2.227082904801e-02       0.000000000000e+00
      2.711602856064e-03      -2.571893070492e-02       0.000000000000e+00
      2.770095131479e-03      -2.931958023672e-02       0.000000000000e+00
      2.798654409512e-03      -3.307921594799e-02       0.000000000000e+00
      2.798763797441e-03      -3.700563479666e-02       0.000000000000e+00
      2.770889986651e-03      -4.110773269312e-02       0.000000000000e+00
      2.714323180319e-03      -4.539496020985e-02       0.000000000000e+00
      2.626716924999e-03      -4.987667500573e-02       0.000000000000e+00
      2.504195632652e-03      -5.455987426343e-02       0.000000000000e+00
      2.339116027857e-03      -5.944799618463e-02       0.000000000000e+00
      2.123381057468e-03      -6.453300333745e-02       0.000000000000e+00
      1.840947454760e-03      -6.979053033329e-02       0.000000000000e+00
      1.480170485993e-03      -7.516493672369e-02       0.000000000000e+00
      0.000000000000e+00       0.000000000000e+00       0.000000000000e+00
      8.881784197001e-16      -2.281124931790e-03       0.000000000000e+00
      0.000000000000e+00      -4.738189316511e-03       0.000000000000e+00
      0.000000000000e+00      -7.356526371397e-03       0.000000000000e+00
      0.000000000000e+00      -1.012592925301e-02       0.000000000000e+00
      0.000000000000e+00      -1.303974563623e-02       0.000000000000e+00
      0.000000000000e+00      -1.609436065548e-02       0.000000000000e+00
      0.000000000000e+00      -1.928872528733e-02       0.000000000000e+00
      8.881784197001e-16      -2.262400520782e-02       0.000000000000e+00
      0.000000000000e+00      -2.610329925731e-02       0.000000000000e+00
      0.000000000000e+00      -2.973141052398e-02       0.000000000000e+00
     -8.881784197001e-16      -3.351463627457e-02       0.000000000000e+00
     -8.881784197001e-16      -3.746053120720e-02       0.000000000000e+00
      0.000000000000e+00      -4.157753700942e-02       0.000000000000e+00
      0.000000000000e+00      -4.587450876973e-02       0.000000000000e+00
     -8.881784197001e-16      -5.035940437836e-02       0.000000000000e+00
      0.000000000000e+00      -5.503836029653e-02       0.000000000000e+00
      0.000000000000e+00      -5.991111041872e-02       0.000000000000e+00
      0.000000000000e+00      -6.496835825701e-02       0.000000000000e+00
      0.000000000000e+00      -7.018547532755e-02       0.000000000000e+00
      0.000000000000e+00      -7.549872621023e-02       0.000000000000e+00
      0.000000000000e+00       0.000000000000e+00       0.000000000000e+00
     -6.088085715792e-04      -2.233058867763e-03       0.000000000000e+00
     -1.107167655437e-03      -4.640728242848e-03       0.000000000000e+00
     -1.514350744293e-03      -7.210149934333e-03       0.000000000000e+00
     -1.845646415079e-03      -9.932328526425e-03       0.000000000000e+00
     -2.113252896200e-03      -1.280142992242e-02       0.000000000000e+00
     -2.326831434459e-03      -1.581435672073e-02       0.000000000000e+00
     -2.494001723936e-03      -1.897037419807e-02       0.000000000000e+00
     -2.620724678724e-03      -2.227082904801e-02       0.000000000000e+00
     -2.711602856063e-03      -2.571893070492e-02       0.000000000000e+00
     -2.770095131480e-03      -2.931958023672e-02       0.000000000000e+00
     -2.798654409511e-03      -3.307921594799e-02       0.000000000000e+00
     -2.798763797441e-03      -3.700563479666e-02       0.000000000000e+00
     -2.770889986652e-03      -4.110773269312e-02       0.000000000000e+00
     -2.714323180318e-03      -4.539496020985e-02       0.000000000000e+00
     -2.626716924998e-03      -4.987667500573e-02       0.000000000000e+00
     -2.504195632652e-03      -5.455987426343e-02       0.000000000000e+00
     -2.339116027857e-03      -5.944799618463e-02       0.000000000000e+00
     -2.123381057467e-03      -6.453300333745e-02       0.000000000000e+00
     -1.840947454759e-03      -6.979053033329e-02       0.000000000000e+00
     -1.480170485993e-03      -7.516493672369e-02       0.000000000000e+00
      0.000000000000e+00       0.000000000000e+00       0.000000000000e+00
     -1.162541855912e-03      -2.094665453547e-03       0.000000000000e+00
     -2.121684682050e-03      -4.359686425466e-03       0.000000000000e+00
     -2.911136200522e-03      -6.787304690445e-03       0.000000000000e+00
     -3.557945938256e-03      -9.372067264526e-03       0.000000000000e+00
     -4.083875062750e-03      -1.211054405485e-02       0.000000000000e+00
     -4.506329958699e-03      -1.500120061408e-02       0.000000000000e+00
     -4.839177036897e-03      -1.804426681034e-02       0.000000000000e+00
     -5.093396951919e-03      -2.124165670254e-02       0.000000000000e+00
     -5.277596884315e-03      -2.459692279159e-02       0.000000000000e+00
     -5.398386525743e-03      -2.811524383562e-02       0.000000000000e+00
     -5.460600992859e-03      -3.180343326360e-02       0.000000000000e+00
     -5.467381025192e-03      -3.566993154488e-02       0.000000000000e+00
     -5.420031978791e-03      -3.972476099479e-02       0.000000000000e+00