# vtk DataFile Version 3.0
truss_upper_top_growth_BCTipp_C1_06.vtk
ASCII
DATASET UNSTRUCTURED_GRID
FIELD FieldData 2
TIME 1 1 double
1.000000e+00
CYCLE 1 1 int
6
POINTS 72 double
      0.000000000000e+00       0.000000000000e+00       0.000000000000e+00
      4.000000000000e+00       0.000000000000e+00       0.000000000000e+00
      8.000000000000e+00       0.000000000000e+00       0.000000000000e+00
      1.200000000000e+01       0.000000000000e+00       0.000000000000e+00
      1.600000000000e+01       0.000000000000e+00       0.000000000000e+00
      2.000000000000e+01       0.000000000000e+00       0.000000000000e+00
      0.000000000000e+00       2.000000000000e-01       0.000000000000e+00
      4.000000000000e+00       2.000000000000e-01       0.000000000000e+00
      8.000000000000e+00       2.000000000000e-01       0.000000000000e+00
      1.200000000000e+01       2.000000000000e-01       0.000000000000e+00
      1.600000000000e+01       2.000000000000e-01       0.000000000000e+00
      2.000000000000e+01       2.000000000000e-01       0.000000000000e+00
      0.000000000000e+00       4.000000000000e-01       0.000000000000e+00
      4.000000000000e+00       4.000000000000e-01       0.000000000000e+00
      8.000000000000e+00       4.000000000000e-01       0.000000000000e+00
      1.200000000000e+01       4.000000000000e-01       0.000000000000e+00
      1.600000000000e+01       4.000000000000e-01       0.000000000000e+00
      2.000000000000e+01       4.000000000000e-01       0.000000000000e+00
      0.000000000000e+00       6.000000000000e-01       0.000000000000e+00
      4.000000000000e+00       6.000000000000e-01       0.000000000000e+00
      8.000000000000e+00       6.000000000000e-01       0.000000000000e+00
      1.200000000000e+01       6.000000000000e-01       0.000000000000e+00
      1.600000000000e+01       6.000000000000e-01       0.000000000000e+00
      2.000000000000e+01       6.000000000000e-01       0.000000000000e+00
      0.000000000000e+00       8.000000000000e-01       0.000000000000e+00
      4.000000000000e+00       8.000000000000e-01       0.000000000000e+00
      8.000000000000e+00       8.000000000000e-01       0.000000000000e+00
      1.200000000000e+01       8.000000000000e-01       0.000000000000e+00
      1.600000000000e+01       8.000000000000e-01       0.000000000000e+00
      2.000000000000e+01       8.000000000000e-01       0.000000000000e+00
      0.000000000000e+00       1.000000000000e+00       0.000000000000e+00
      4.000000000000e+00       1.000000000000e+00       0.000000000000e+00
      8.000000000000e+00       1.000000000000e+00       0.000000000000e+00
      1.200000000000e+01       1.000000000000e+00       0.000000000000e+00
      1.600000000000e+01       1.000000000000e+00       0.000000000000e+00
      2.000000000000e+01       1.000000000000e+00       0.000000000000e+00
      0.000000000000e+00       1.000000000000e+00       0.000000000000e+00
      4.000000000000e+00       1.000000000000e+00       0.000000000000e+00
      8.000000000000e+00       1.000000000000e+00       0.000000000000e+00
      1.200000000000e+01       1.000000000000e+00       0.000000000000e+00
      1.600000000000e+01       1.000000000000e+00       0.000000000000e+00
      2.000000000000e+01       1.000000000000e+00       0.000000000000e+00
      0.000000000000e+00       1.200000000000e+00       0.000000000000e+00
      4.000000000000e+00       1.200000000000e+00       0.000000000000e+00
      8.000000000000e+00       1.200000000000e+00       0.000000000000e+00
      1.200000000000e+01       1.200000000000e+00       0.000000000000e+00
      1.600000000000e+01       1.200000000000e+00       0.000000000000e+00
      2.000000000000e+01       1.200000000000e+00       0.000000000000e+00
      0.000000000000e+00       1.400000000000e+00       0.000000000000e+00
      4.000000000000e+00       1.400000000000e+00       0.000000000000e+00
      8.000000000000e+00       1.400000000000e+00       0.000000000000e+00
      1.200000000000e+01       1.400000000000e+00       0.000000000000e+00
      1.600000000000e+01       1.400000000000e+00       0.000000000000e+00
      2.000000000000e+01       1.400000000000e+00       0.000000000000e+00
      0.000000000000e+00       1.600000000000e+00       0.000000000000e+00
      4.000000000000e+00       1.600000000000e+00       0.000000000000e+00
      8.000000000000e+00       1.600000000000e+00       0.000000000000e+00
      1.200000000000e+01       1.600000000000e+00       0.000000000000e+00
      1.600000000000e+01       1.600000000000e+00       0.000000000000e+00
      2.000000000000e+01       1.600000000000e+00       0.000000000000e+00
      0.000000000000e+00       1.800000000000e+00       0.000000000000e+00
      4.000000000000e+00       1.800000000000e+00       0.000000000000e+00
      8.000000000000e+00       1.800000000000e+00       0.000000000000e+00
      1.200000000000e+01       1.800000000000e+00       0.000000000000e+00
      1.600000000000e+01       1.800000000000e+00       0.000000000000e+00
      2.000000000000e+01       1.800000000000e+00       0.000000000000e+00
      0.000000000000e+00       2.000000000000e+00       0.000000000000e+00
      4.000000000000e+00       2.000000000000e+00       0.000000000000e+00
      8.000000000000e+00       2.000000000000e+00       0.000000000000e+00
      1.200000000000e+01       2.000000000000e+00       0.000000000000e+00
      1.600000000000e+01       2.000000000000e+00       0.000000000000e+00
      2.000000000000e+01       2.000000000000e+00       0.000000000000e+00
CELLS 50 250
4         0        1        7        6
4         1        2        8        7
4         2        3        9        8
4         3        4       10        9
4         4        5       11       10
4         6        7       13       12
4         7        8       14       13
4         8        9       15       14
4         9       10       16       15
4        10       11       17       16
4        12       13       19       18
4        13       14       20       19
4        14       15       21       20
4        15       16       22       21
4        16       17       23       22
4        18       19       25       24
4        19       20       26       25
4        20       21       27       26
4        21       22       28       27
4        22       23       29       28
4        24       25       31       30
4        25       26       32       31
4        26       27       33       32
4        27       28       34       33
4        28       29       35       34
4        36       37       43       42
4        37       38       44       43
4        38       39       45       44
4        39       40       46       45
4        40       41       47       46
4        42       43       49       48
4        43       44       50       49
4        44       45       51       50
4        45       46       52       51
4        46       47       53       52
4        48       49       55       54
4        49       50       56       55
4        50       51       57       56
4        51       52       58       57
4        52       53       59       58
4        54       55       61       60
4        55       56       62       61
4        56       57       63       62
4        57       58       64       63
4        58       59       65       64
4        60       61       67       66
4        61       62       68       67
4        62       63       69       68
4        63       64       70       69
4        64       65       71       70
CELL_TYPES 50
9
9
9
9
9
9
9
9
9
9
9
9
9
9
9
9
9
9
9
9
9
9
9
9
9
9
9
9
9
9
9
9
9
9
9
9
9
9
9
9
9
9
9
9
9
9
9
9
9
9
POINT_DATA 72
VECTORS DSPL double
      0.000000000000e+00       0.000000000000e+00       0.000000000000e+00
      2.000000000000e-01       5.898601919407e-15       0.000000000000e+00
      4.000000000000e-01       1.710719239878e-14       0.000000000000e+00
      6.000000000000e-01       2.691369262869e-14       0.000000000000e+00
      8.000000000000e-01       3.308497139448e-14       0.000000000000e+00
      1.000000000000e+00       3.511393436991e-14       0.000000000000e+00
      0.000000000000e+00      -4.285714285714e-03       0.000000000000e+00
      2.000000000000e-01      -4.285714285708e-03       0.000000000000e+00
      4.000000000000e-01      -4.285714285697e-03       0.000000000000e+00
      6.000000000000e-01      -4.285714285687e-03       0.000000000000e+00
      8.000000000000e-01      -4.285714285681e-03       0.000000000000e+00
      1.000000000000e+00      -4.285714285679e-03       0.000000000000e+00
      0.000000000000e+00      -8.571428571429e-03       0.000000000000e+00
      2.000000000000e-01      -8.571428571423e-03       0.000000000000e+00
      4.000000000000e-01      -8.571428571411e-03       0.000000000000e+00
      6.000000000000e-01      -8.571428571402e-03       0.000000000000e+00
      8.000000000000e-01      -8.571428571395e-03       0.000000000000e+00
      1.000000000000e+00      -8.571428571393e-03       0.000000000000e+00
      0.000000000000e+00      -1.285714285714e-02       0.000000000000e+00
      2.000000000000e-01      -1.285714285714e-02       0.000000000000e+00
      4.000000000000e-01      -1.285714285713e-02       0.000000000000e+00
      6.000000000000e-01      -1.285714285712e-02       0.000000000000e+00
      8.000000000000e-01      -1.285714285711e-02       0.000000000000e+00
      1.000000000000e+00      -1.285714285711e-02       0.000000000000e+00
      0.000000000000e+00      -1.714285714286e-02       0.000000000000e+00
      2.000000000000e-01      -1.714285714285e-02       0.000000000000e+00
      4.000000000000e-01      -1.714285714284e-02       0.000000000000e+00
      6.000000000000e-01      -1.714285714283e-02       0.000000000000e+00
      8.000000000000e-01      -1.714285714282e-02       0.000000000000e+00
      1.000000000000e+00      -1.714285714282e-02       0.000000000000e+00
      0.000000000000e+00      -2.142857142857e-02       0.000000000000e+00
      2.000000000000e-01      -2.142857142857e-02       0.000000000000e+00
      4.000000000000e-01      -2.142857142855e-02       0.000000000000e+00
      6.000000000000e-01      -2.142857142854e-02       0.000000000000e+00
      8.000000000000e-01      -2.142857142854e-02       0.000000000000e+00
      1.000000000000e+00      -2.142857142854e-02       0.000000000000e+00
      0.000000000000e+00      -2.142857142857e-02       0.000000000000e+00
      2.000000000000e-01      -2.142857142857e-02       0.000000000000e+00
      4.000000000000e-01      -2.142857142855e-02       0.000000000000e+00
      6.000000000000e-01      -2.142857142854e-02       0.000000000000e+00
      8.000000000000e-01      -2.142857142854e-02       0.000000000000e+00
      1.000000000000e+00      -2.142857142854e-02       0.000000000000e+00
      0.000000000000e+00      -2.571428571429e-02       0.000000000000e+00
      2.000000000000e-01      -2.571428571428e-02       0.000000000000e+00
      4.000000000000e-01      -2.571428571427e-02       0.000000000000e+00
      6.000000000000e-01      -2.571428571426e-02       0.000000000000e+00
      8.000000000000e-01      -2.571428571425e-02       0.000000000000e+00
      1.000000000000e+00      -2.571428571425e-02       0.000000000000e+00
      0.000000000000e+00      -3.000000000000e-02       0.000000000000e+00
      2.000000000000e-01      -2.999999999999e-02       0.000000000000e+00
      4.000000000000e-01      -2.999999999998e-02       0.000000000000e+00
      6.000000000000e-01      -2.999999999997e-02       0.000000000000e+00
      8.000000000000e-01      -2.999999999997e-02       0.000000000000e+00
      1.000000000000e+00      -2.999999999997e-02       0.000000000000e+00
      0.000000000000e+00      -3.428571428571e-02       0.000000000000e+00
      2.000000000000e-01      -3.428571428571e-02       0.000000000000e+00
      4.000000000000e-01      -3.428571428570e-02       0.000000000000e+00
      6.000000000000e-01      -3.428571428569e-02       0.000000000000e+00
      8.000000000000e-01      -3.428571428568e-02       0.000000000000e+00
      1.000000000000e+00      -3.428571428568e-02       0.000000000000e+00
      0.000000000000e+00      -3.857142857143e-02       0.000000000000e+00
      2.000000000000e-01      -3.857142857142e-02       0.000000000000e+00
      4.000000000000e-01      -3.857142857141e-02       0.000000000000e+00
      6.000000000000e-01      -3.857142857140e-02       0.000000000000e+00
      8.000000000000e-01      -3.857142857140e-02       0.000000000000e+00
      1.000000000000e+00      -3.857142857139e-02       0.000000000000e+00
      0.000000000000e+00      -4.285714285714e-02       0.000000000000e+00
      2.000000000000e-01      -4.285714285714e-02       0.000000000000e+00
      4.000000000000e-01      -4.285714285713e-02       0.000000000000e+00
      6.000000000000e-01      -4.285714285712e-02       0.000000000000e+00
      8.000000000000e-01      -4.285714285711e-02       0.000000000000e+00
      1.000000000000e+00      -4.285714285711e-02       0.000000000000e+00
CELL_DATA 50
SCALARS eps11 double
LOOKUP_TABLE default
      5.000000000000e-02
      5.000000000000e-02
      5.000000000000e-02
      5.000000000000e-02
      5.000000000000e-02
      5.000000000000e-02
      5.000000000000e-02
      5.000000000000e-02
      5.000000000000e-02
      5.000000000000e-02
      5.000000000000e-02
      5.000000000000e-02
      5.000000000000e-02
      5.000000000000e-02
      5.000000000000e-02
      5.000000000000e-02
      5.000000000000e-02
      5.000000000000e-02
      5.000000000000e-02
      5.000000000000e-02
      5.000000000000e-02
      5.000000000000e-02
      5.000000000000e-02
      5.000000000000e-02
      5.000000000000e-02
      5.000000000000e-02
      5.000000000000e-02
      5.000000000000e-02
      5.000000000000e-02
      5.000000000000e-02
      5.000000000000e-02
      5.000000000000e-02
      5.000000000000e-02
      5.000000000000e-02
      5.000000000000e-02
      5.000000000000e-02
      5.000000000000e-02
      5.000000000000e-02
      5.000000000000e-02
      5.000000000000e-02
      5.000000000000e-02
      5.000000000000e-02
      5.000000000000e-02
      5.000000000000e-02
      5.000000000000e-02
      5.000000000000e-02
      5.000000000000e-02
      5.000000000000e-02
      5.000000000000e-02
      5.000000000000e-02
SCALARS eps12 double
LOOKUP_TABLE default
      1.176867576915e-17
      6.877964000568e-17
      1.243421779024e-16
      1.282927395684e-16
     -7.409279533949e-18
      6.515684479723e-17
      6.083501800255e-17
     -1.076510583929e-16
      6.391324161199e-17
     -3.084676941707e-17
      9.059229129122e-17
      6.179147701867e-17
     -8.673066808468e-17
      6.761991072873e-17
     -3.024627599703e-17
      6.475778639996e-17
      2.281483243429e-17
      1.097447650198e-16
     -1.555688239498e-16
     -1.405699880363e-16
      7.854282410005e-17
      7.967361308463e-17
      3.949926391284e-17
      9.119664929908e-17
     -7.702494105857e-17
      6.044596518196e-17
      3.534160269124e-17
      1.180484407600e-16
      8.576123887655e-17
      1.602374577968e-16
      7.677591337208e-17
      6.929491838193e-17
      1.799102215133e-16
      1.219549567127e-16
      3.993209774888e-17
      7.307183829373e-17
      4.746772636413e-18
     -4.239315197713e-17
      9.557919776818e-17
      4.775741163209e-17
      3.338156845129e-17
      2.816299846326e-17
      2.004588172972e-17
     -2.430510220169e-16
     -3.439775387811e-16
      2.552957303024e-17
      1.694150597803e-17
     -4.429982314140e-18
      1.906247647796e-17
     -1.007460987464e-16
SCALARS eps21 double
LOOKUP_TABLE default
      1.176867576915e-17
      6.877964000568e-17
      1.243421779024e-16
      1.282927395684e-16
     -7.409279533949e-18
      6.515684479723e-17
      6.083501800255e-17
     -1.076510583929e-16
      6.391324161199e-17
     -3.084676941707e-17
      9.059229129122e-17
      6.179147701867e-17
     -8.673066808468e-17
      6.761991072873e-17
     -3.024627599703e-17
      6.475778639996e-17
      2.281483243429e-17
      1.097447650198e-16
     -1.555688239498e-16
     -1.405699880363e-16
      7.854282410005e-17
      7.967361308463e-17
      3.949926391284e-17
      9.119664929908e-17
     -7.702494105857e-17
      6.044596518196e-17
      3.534160269124e-17
      1.180484407600e-16
      8.576123887655e-17
      1.602374577968e-16
      7.677591337208e-17
      6.929491838193e-17
      1.799102215133e-16
      1.219549567127e-16
      3.993209774888e-17
      7.307183829373e-17
      4.746772636413e-18
     -4.239315197713e-17
      9.557919776818e-17
      4.775741163209e-17
      3.338156845129e-17
      2.816299846326e-17
      2.004588172972e-17
     -2.430510220169e-16
     -3.439775387811e-16
      2.552957303024e-17
      1.694150597803e-17
     -4.429982314140e-18
      1.906247647796e-17
     -1.007460987464e-16
SCALARS eps22 double
LOOKUP_TABLE default
     -2.142857142857e-02
     -2.142857142857e-02
     -2.142857142857e-02
     -2.142857142857e-02
     -2.142857142857e-02
     -2.142857142857e-02
     -2.142857142857e-02
     -2.142857142857e-02
     -2.142857142857e-02
     -2.142857142857e-02
     -2.142857142857e-02
     -2.142857142857e-02
     -2.142857142857e-02
     -2.142857142857e-02
     -2.142857142857e-02
     -2.142857142857e-02
     -2.142857142857e-02
     -2.142857142857e-02
     -2.142857142857e-02
     -2.142857142857e-02
     -2.142857142857e-02
     -2.142857142857e-02
     -2.142857142857e-02
     -2.142857142857e-02
     -2.142857142857e-02
     -2.142857142857e-02
     -2.142857142857e-02
     -2.142857142857e-02
     -2.142857142857e-02
     -2.142857142857e-02
     -2.142857142857e-02
     -2.142857142857e-02
     -2.142857142857e-02
     -2.142857142857e-02
     -2.142857142857e-02
     -2.142857142857e-02
     -2.142857142857e-02
     -2.142857142857e-02
     -2.142857142857e-02
     -2.142857142857e-02
     -2.142857142857e-02
     -2.142857142857e-02
     -2.142857142857e-02
     -2.142857142857e-02
     -2.142857142857e-02
     -2.142857142857e-02
     -2.142857142857e-02
     -2.142857142857e-02
     -2.142857142857e-02
     -2.142857142857e-02
SCALARS sig11 double
LOOKUP_TABLE default
      1.153846153846e+04
      1.153846153846e+04
      1.153846153846e+04
      1.153846153846e+04
      1.153846153846e+04
      1.153846153846e+04
      1.153846153846e+04
      1.153846153846e+04
      1.153846153846e+04
      1.153846153846e+04
      1.153846153846e+04
      1.153846153846e+04
      1.153846153846e+04
      1.153846153846e+04
      1.153846153846e+04
      1.153846153846e+04
      1.153846153846e+04
      1.153846153846e+04
      1.153846153846e+04
      1.153846153846e+04
      1.153846153846e+04
      1.153846153846e+04
      1.153846153846e+04
      1.153846153846e+04
      1.153846153846e+04
      1.153846153846e+04
      1.153846153846e+04
      1.153846153846e+04
      1.153846153846e+04
      1.153846153846e+04
      1.153846153846e+04
      1.153846153846e+04
      1.153846153846e+04
      1.153846153846e+04
      1.153846153846e+04
      1.153846153846e+04
      1.153846153846e+04
      1.153846153846e+04
      1.153846153846e+04
      1.153846153846e+04
      1.153846153846e+04
      1.153846153846e+04
      1.153846153846e+04
      1.153846153846e+04
      1.153846153846e+04
      1.153846153846e+04
      1.153846153846e+04
      1.153846153846e+04
      1.153846153846e+04
      1.153846153846e+04
SCALARS sig12 double
LOOKUP_TABLE default
      1.901093778094e-12
      1.111055723169e-11
      2.008604412270e-11
      2.072421177643e-11
     -1.196883617023e-12
      1.052533646725e-11
      9.827195215796e-12
     -1.738978635577e-11
      1.032444672194e-11
     -4.982939675066e-12
      1.463413936243e-11
      9.981700133786e-12
     -1.401033869060e-11
      1.092321634849e-11
     -4.885936891828e-12
      1.046087318769e-11
      3.685472931694e-12
      1.772800050320e-11
     -2.513034848420e-11
     -2.270745960586e-11
      1.268768697001e-11
      1.287035288290e-11
      6.380650324381e-12
      1.473176642524e-11
     -1.244249047869e-11
      9.764348221701e-12
      5.709028127046e-12
      1.906936350738e-11
      1.385373858775e-11
      2.588451241333e-11
      1.240226292934e-11
      1.119379450785e-11
      2.906242039830e-11
      1.970041608436e-11
      6.450569636358e-12
      1.180391233976e-11
      7.667863489590e-13
     -6.848124550152e-12
      1.543971656255e-11
      7.714658802107e-12
      5.392407211363e-12
      4.549407444065e-12
      3.238180894801e-12
     -3.926208817197e-11
     -5.556560241849e-11
      4.124007951040e-12
      2.736704811836e-12
     -7.156125276688e-13
      3.079323123362e-12
     -1.627436979750e-11
SCALARS sig21 double
LOOKUP_TABLE default
      1.901093778094e-12
      1.111055723169e-11
      2.008604412270e-11
      2.072421177643e-11
     -1.196883617023e-12
      1.052533646725e-11
      9.827195215796e-12
     -1.738978635577e-11
      1.032444672194e-11
     -4.982939675066e-12
      1.463413936243e-11
      9.981700133786e-12
     -1.401033869060e-11
      1.092321634849e-11
     -4.885936891828e-12
      1.046087318769e-11
      3.685472931694e-12
      1.772800050320e-11
     -2.513034848420e-11
     -2.270745960586e-11
      1.268768697001e-11
      1.287035288290e-11
      6.380650324381e-12
      1.473176642524e-11
     -1.244249047869e-11
      9.764348221701e-12
      5.709028127046e-12
      1.906936350738e-11
      1.385373858775e-11
      2.588451241333e-11
      1.240226292934e-11
      1.119379450785e-11
      2.906242039830e-11
      1.970041608436e-11
      6.450569636358e-12
      1.180391233976e-11
      7.667863489590e-13
     -6.848124550152e-12
      1.543971656255e-11
      7.714658802107e-12
      5.392407211363e-12
      4.549407444065e-12
      3.238180894801e-12
     -3.926208817197e-11
     -5.556560241849e-11
      4.124007951040e-12
      2.736704811836e-12
     -7.156125276688e-13
      3.079323123362e-12
     -1.627436979750e-11
SCALARS sig22 double
LOOKUP_TABLE default
      2.728484105319e-12
      2.273736754432e-13
     -4.547473508865e-13
     -1.136868377216e-12
      8.835242138475e-28
      3.410605131648e-12
      9.094947017729e-13
      2.273736754432e-13
      2.273736754432e-12
      4.038967834732e-27
      4.092726157978e-12
      1.364242052659e-12
     -1.136868377216e-12
      1.818989403546e-12
     -1.364242052659e-12
      2.955857780762e-12
      2.501110429876e-12
     -1.262177448354e-28
      2.728484105319e-12
      1.135959703518e-27
      2.046363078989e-12
     -2.955857780762e-12
      2.501110429876e-12
      2.273736754432e-12
      2.501110429876e-12
     -6.821210263297e-13
      1.818989403546e-12
     -2.501110429876e-12
      2.273736754432e-12
     -2.273736754432e-13
      9.094947017729e-13
     -2.273736754432e-13
     -4.547473508865e-13
      2.046363078989e-12
      1.591615728103e-12
     -1.591615728103e-12
      1.364242052659e-12
     -6.821210263297e-13
      2.728484105319e-12
     -1.068656274583e-11
     -2.273736754432e-13
      7.503331289627e-12
      2.501110429876e-12
      6.366462912411e-12
     -1.364242052659e-12
      8.867573342286e-12
      3.410605131648e-12
      1.591615728103e-12
      2.728484105319e-12
      6.593836587854e-12
