# vtk DataFile Version 3.0
truss_upper_top_growth_BCTipp_C1_03.vtk
ASCII
DATASET UNSTRUCTURED_GRID
FIELD FieldData 2
TIME 1 1 double
4.000000e-01
CYCLE 1 1 int
3
POINTS 72 double
      0.000000000000e+00       0.000000000000e+00       0.000000000000e+00
      4.000000000000e+00       0.000000000000e+00       0.000000000000e+00
      8.000000000000e+00       0.000000000000e+00       0.000000000000e+00
      1.200000000000e+01       0.000000000000e+00       0.000000000000e+00
      1.600000000000e+01       0.000000000000e+00       0.000000000000e+00
      2.000000000000e+01       0.000000000000e+00       0.000000000000e+00
      0.000000000000e+00       2.000000000000e-01       0.000000000000e+00
      4.000000000000e+00       2.000000000000e-01       0.000000000000e+00
      8.000000000000e+00       2.000000000000e-01       0.000000000000e+00
      1.200000000000e+01       2.000000000000e-01       0.000000000000e+00
      1.600000000000e+01       2.000000000000e-01       0.000000000000e+00
      2.000000000000e+01       2.000000000000e-01       0.000000000000e+00
      0.000000000000e+00       4.000000000000e-01       0.000000000000e+00
      4.000000000000e+00       4.000000000000e-01       0.000000000000e+00
      8.000000000000e+00       4.000000000000e-01       0.000000000000e+00
      1.200000000000e+01       4.000000000000e-01       0.000000000000e+00
      1.600000000000e+01       4.000000000000e-01       0.000000000000e+00
      2.000000000000e+01       4.000000000000e-01       0.000000000000e+00
      0.000000000000e+00       6.000000000000e-01       0.000000000000e+00
      4.000000000000e+00       6.000000000000e-01       0.000000000000e+00
      8.000000000000e+00       6.000000000000e-01       0.000000000000e+00
      1.200000000000e+01       6.000000000000e-01       0.000000000000e+00
      1.600000000000e+01       6.000000000000e-01       0.000000000000e+00
      2.000000000000e+01       6.000000000000e-01       0.000000000000e+00
      0.000000000000e+00       8.000000000000e-01       0.000000000000e+00
      4.000000000000e+00       8.000000000000e-01       0.000000000000e+00
      8.000000000000e+00       8.000000000000e-01       0.000000000000e+00
      1.200000000000e+01       8.000000000000e-01       0.000000000000e+00
      1.600000000000e+01       8.000000000000e-01       0.000000000000e+00
      2.000000000000e+01       8.000000000000e-01       0.000000000000e+00
      0.000000000000e+00       1.000000000000e+00       0.000000000000e+00
      4.000000000000e+00       1.000000000000e+00       0.000000000000e+00
      8.000000000000e+00       1.000000000000e+00       0.000000000000e+00
      1.200000000000e+01       1.000000000000e+00       0.000000000000e+00
      1.600000000000e+01       1.000000000000e+00       0.000000000000e+00
      2.000000000000e+01       1.000000000000e+00       0.000000000000e+00
      0.000000000000e+00       1.000000000000e+00       0.000000000000e+00
      4.000000000000e+00       1.000000000000e+00       0.000000000000e+00
      8.000000000000e+00       1.000000000000e+00       0.000000000000e+00
      1.200000000000e+01       1.000000000000e+00       0.000000000000e+00
      1.600000000000e+01       1.000000000000e+00       0.000000000000e+00
      2.000000000000e+01       1.000000000000e+00       0.000000000000e+00
      0.000000000000e+00       1.200000000000e+00       0.000000000000e+00
      4.000000000000e+00       1.200000000000e+00       0.000000000000e+00
      8.000000000000e+00       1.200000000000e+00       0.000000000000e+00
      1.200000000000e+01       1.200000000000e+00       0.000000000000e+00
      1.600000000000e+01       1.200000000000e+00       0.000000000000e+00
      2.000000000000e+01       1.200000000000e+00       0.000000000000e+00
      0.000000000000e+00       1.400000000000e+00       0.000000000000e+00
      4.000000000000e+00       1.400000000000e+00       0.000000000000e+00
      8.000000000000e+00       1.400000000000e+00       0.000000000000e+00
      1.200000000000e+01       1.400000000000e+00       0.000000000000e+00
      1.600000000000e+01       1.400000000000e+00       0.000000000000e+00
      2.000000000000e+01       1.400000000000e+00       0.000000000000e+00
      0.000000000000e+00       1.600000000000e+00       0.000000000000e+00
      4.000000000000e+00       1.600000000000e+00       0.000000000000e+00
      8.000000000000e+00       1.600000000000e+00       0.000000000000e+00
      1.200000000000e+01       1.600000000000e+00       0.000000000000e+00
      1.600000000000e+01       1.600000000000e+00       0.000000000000e+00
      2.000000000000e+01       1.600000000000e+00       0.000000000000e+00
      0.000000000000e+00       1.800000000000e+00       0.000000000000e+00
      4.000000000000e+00       1.800000000000e+00       0.000000000000e+00
      8.000000000000e+00       1.800000000000e+00       0.000000000000e+00
      1.200000000000e+01       1.800000000000e+00       0.000000000000e+00
      1.600000000000e+01       1.800000000000e+00       0.000000000000e+00
      2.000000000000e+01       1.800000000000e+00       0.000000000000e+00
      0.000000000000e+00       2.000000000000e+00       0.000000000000e+00
      4.000000000000e+00       2.000000000000e+00       0.000000000000e+00
      8.000000000000e+00       2.000000000000e+00       0.000000000000e+00
      1.200000000000e+01       2.000000000000e+00       0.000000000000e+00
      1.600000000000e+01       2.000000000000e+00       0.000000000000e+00
      2.000000000000e+01       2.000000000000e+00       0.000000000000e+00
CELLS 50 250
4         0        1        7        6
4         1        2        8        7
4         2        3        9        8
4         3        4       10        9
4         4        5       11       10
4         6        7       13       12
4         7        8       14       13
4         8        9       15       14
4         9       10       16       15
4        10       11       17       16
4        12       13       19       18
4        13       14       20       19
4        14       15       21       20
4        15       16       22       21
4        16       17       23       22
4        18       19       25       24
4        19       20       26       25
4        20       21       27       26
4        21       22       28       27
4        22       23       29       28
4        24       25       31       30
4        25       26       32       31
4        26       27       33       32
4        27       28       34       33
4        28       29       35       34
4        36       37       43       42
4        37       38       44       43
4        38       39       45       44
4        39       40       46       45
4        40       41       47       46
4        42       43       49       48
4        43       44       50       49
4        44       45       51       50
4        45       46       52       51
4        46       47       53       52
4        48       49       55       54
4        49       50       56       55
4        50       51       57       56
4        51       52       58       57
4        52       53       59       58
4        54       55       61       60
4        55       56       62       61
4        56       57       63       62
4        57       58       64       63
4        58       59       65       64
4        60       61       67       66
4        61       62       68       67
4        62       63       69       68
4        63       64       70       69
4        64       65       71       70
CELL_TYPES 50
9
9
9
9
9
9
9
9
9
9
9
9
9
9
9
9
9
9
9
9
9
9
9
9
9
9
9
9
9
9
9
9
9
9
9
9
9
9
9
9
9
9
9
9
9
9
9
9
9
9
POINT_DATA 72
VECTORS DSPL double
      0.000000000000e+00       0.000000000000e+00       0.000000000000e+00
      1.997900315647e-01      -2.887710156895e-03       0.000000000000e+00
      4.001128354646e-01      -3.144007402811e-03       0.000000000000e+00
      5.998871645354e-01      -3.144007402812e-03       0.000000000000e+00
      8.002099684353e-01      -2.887710156898e-03       0.000000000000e+00
      1.000000000000e+00      -2.827233912083e-15       0.000000000000e+00
      0.000000000000e+00      -4.243760405367e-03       0.000000000000e+00
      1.998758471451e-01      -7.185864478159e-03       0.000000000000e+00
      4.000921380788e-01      -7.427340159124e-03       0.000000000000e+00
      5.999078619212e-01      -7.427340159125e-03       0.000000000000e+00
      8.001241528549e-01      -7.185864478162e-03       0.000000000000e+00
      1.000000000000e+00      -4.243760405369e-03       0.000000000000e+00
      0.000000000000e+00      -8.475518179843e-03       0.000000000000e+00
      1.999581609314e-01      -1.148559163377e-02       0.000000000000e+00
      4.000761143218e-01      -1.170947529925e-02       0.000000000000e+00
      5.999238856782e-01      -1.170947529925e-02       0.000000000000e+00
      8.000418390686e-01      -1.148559163377e-02       0.000000000000e+00
      1.000000000000e+00      -8.475518179846e-03       0.000000000000e+00
      0.000000000000e+00      -1.269315160010e-02       0.000000000000e+00
      2.000395205944e-01      -1.578752868708e-02       0.000000000000e+00
      4.000617947452e-01      -1.599022620545e-02       0.000000000000e+00
      5.999382052548e-01      -1.599022620546e-02       0.000000000000e+00
      7.999604794056e-01      -1.578752868708e-02       0.000000000000e+00
      1.000000000000e+00      -1.269315160011e-02       0.000000000000e+00
      0.000000000000e+00      -1.689522099338e-02       0.000000000000e+00
      2.001224705275e-01      -2.009199528850e-02       0.000000000000e+00
      4.000462184369e-01      -2.026949879923e-02       0.000000000000e+00
      5.999537815631e-01      -2.026949879923e-02       0.000000000000e+00
      7.998775294725e-01      -2.009199528850e-02       0.000000000000e+00
      1.000000000000e+00      -1.689522099339e-02       0.000000000000e+00
      0.000000000000e+00      -2.108095605706e-02       0.000000000000e+00
      2.002096418483e-01      -2.439899270553e-02       0.000000000000e+00
      4.000262943746e-01      -2.454729228798e-02       0.000000000000e+00
      5.999737056254e-01      -2.454729228798e-02       0.000000000000e+00
      7.997903581517e-01      -2.439899270553e-02       0.000000000000e+00
      1.000000000000e+00      -2.108095605707e-02       0.000000000000e+00
      0.000000000000e+00      -2.108095605706e-02       0.000000000000e+00
      2.002096418483e-01      -2.439899270553e-02       0.000000000000e+00
      4.000262943746e-01      -2.454729228798e-02       0.000000000000e+00
      5.999737056254e-01      -2.454729228798e-02       0.000000000000e+00
      7.997903581517e-01      -2.439899270553e-02       0.000000000000e+00
      1.000000000000e+00      -2.108095605707e-02       0.000000000000e+00
      0.000000000000e+00      -2.525121828463e-02       0.000000000000e+00
      2.003042936478e-01      -2.870864636884e-02       0.000000000000e+00
      3.999983407589e-01      -2.882356607830e-02       0.000000000000e+00
      6.000016592411e-01      -2.882356607830e-02       0.000000000000e+00
      7.996957063522e-01      -2.870864636884e-02       0.000000000000e+00
      1.000000000000e+00      -2.525121828463e-02       0.000000000000e+00
      3.016521015383e-03      -2.938895930270e-02       0.000000000000e+00
      1.999028995001e-01      -3.301165129981e-02       0.000000000000e+00
      4.002348274645e-01      -3.310110693087e-02       0.000000000000e+00
      5.997651725355e-01      -3.310110693087e-02       0.000000000000e+00
      8.000971004999e-01      -3.301165129981e-02       0.000000000000e+00
      9.969834789846e-01      -2.938895930271e-02       0.000000000000e+00
      1.614541764044e-02      -3.225384008776e-02       0.000000000000e+00
      1.983341851314e-01      -3.749512829109e-02       0.000000000000e+00
      4.010957408032e-01      -3.733627874760e-02       0.000000000000e+00
      5.989042591968e-01      -3.733627874761e-02       0.000000000000e+00
      8.016658148686e-01      -3.749512829109e-02       0.000000000000e+00
      9.838545823596e-01      -3.225384008777e-02       0.000000000000e+00
      2.944920897782e-02      -3.419302480831e-02       0.000000000000e+00
      1.969678795374e-01      -4.200716520474e-02       0.000000000000e+00
      4.018316814734e-01      -4.156509076664e-02       0.000000000000e+00
      5.981683185266e-01      -4.156509076664e-02       0.000000000000e+00
      8.030321204626e-01      -4.200716520474e-02       0.000000000000e+00
      9.705507910222e-01      -3.419302480831e-02       0.000000000000e+00
      3.366862733970e-02      -3.632054304398e-02       0.000000000000e+00
      1.966876885074e-01      -4.636585329876e-02       0.000000000000e+00
      4.019772934741e-01      -4.583004615698e-02       0.000000000000e+00
      5.980227065259e-01      -4.583004615698e-02       0.000000000000e+00
      8.033123114926e-01      -4.636585329876e-02       0.000000000000e+00
      9.663313726603e-01      -3.632054304399e-02       0.000000000000e+00
CELL_DATA 50
SCALARS eps11 double
LOOKUP_TABLE default
      4.995833457013e-02
      5.006715843674e-02
      4.994901398627e-02
      5.006715843674e-02
      4.995833457013e-02
      4.997929718623e-02
      5.004166831535e-02
      4.995806899682e-02
      5.004166831535e-02
      4.997929718623e-02
      4.999970376918e-02
      5.001752990517e-02
      4.996553265131e-02
      5.001752990517e-02
      4.999970376918e-02
      5.002018905053e-02
      4.999336992008e-02
      4.997288205877e-02
      4.999336992008e-02
      5.002018905053e-02
      5.004139799554e-02
      4.996778993947e-02
      4.998162413000e-02
      4.996778993947e-02
      5.004139799554e-02
      5.006401208203e-02
      4.993930674311e-02
      4.999336234971e-02
      4.993930674311e-02
      5.006401208203e-02
      4.979542082832e-02
      4.997109066816e-02
      4.996422350449e-02
      4.997109066816e-02
      4.979542082832e-02
      4.770779376149e-02
      5.034418555188e-02
      4.969687792549e-02
      5.034418555188e-02
      4.770779376149e-02
      4.338888282253e-02
      5.100931049707e-02
      4.922821004940e-02
      5.100931049707e-02
      4.338888282253e-02
      4.121799308556e-02
      5.128288686812e-02
      4.903849658879e-02
      5.128288686812e-02
      4.121799308556e-02
SCALARS eps12 double
LOOKUP_TABLE default
     -1.152045368666e-04
     -1.136472723773e-05
     -3.557538378468e-19
      1.136472723784e-05
      1.152045368667e-04
     -1.393618043719e-04
     -5.838089802202e-07
     -4.369631216648e-17
      5.838089800798e-07
      1.393618043719e-04
     -1.540813070178e-04
      5.298855334896e-06
     -4.578424838146e-17
     -5.298855334773e-06
      1.540813070178e-04
     -1.596663983898e-04
      6.378710429204e-06
      1.126490292377e-16
     -6.378710429216e-06
      1.596663983897e-04
     -1.558428041450e-04
      2.429277056218e-06
     -2.839339142491e-16
     -2.429277056129e-06
      1.558428041453e-04
     -1.400924950188e-04
     -7.528017546671e-06
      1.597588841816e-16
      7.528017546826e-06
      1.400924950190e-04
      6.740139467101e-04
      2.441823666217e-04
     -9.552202304424e-17
     -2.441823666219e-04
     -6.740139467101e-04
      5.060000877427e-03
      8.444817849847e-04
     -2.329340604949e-16
     -8.444817849849e-04
     -5.060000877426e-03
      5.618183119466e-03
      7.429706425384e-04
     -1.077425908907e-16
     -7.429706425388e-04
     -5.618183119465e-03
      1.459697283132e-03
      1.914536162079e-04
     -1.456049636330e-16
     -1.914536162084e-04
     -1.459697283131e-03
SCALARS eps21 double
LOOKUP_TABLE default
     -1.152045368666e-04
     -1.136472723773e-05
     -3.557538378468e-19
      1.136472723784e-05
      1.152045368667e-04
     -1.393618043719e-04
     -5.838089802202e-07
     -4.369631216648e-17
      5.838089800798e-07
      1.393618043719e-04
     -1.540813070178e-04
      5.298855334896e-06
     -4.578424838146e-17
     -5.298855334773e-06
      1.540813070178e-04
     -1.596663983898e-04
      6.378710429204e-06
      1.126490292377e-16
     -6.378710429216e-06
      1.596663983897e-04
     -1.558428041450e-04
      2.429277056218e-06
     -2.839339142491e-16
     -2.429277056129e-06
      1.558428041453e-04
     -1.400924950188e-04
     -7.528017546671e-06
      1.597588841816e-16
      7.528017546826e-06
      1.400924950190e-04
      6.740139467101e-04
      2.441823666217e-04
     -9.552202304424e-17
     -2.441823666219e-04
     -6.740139467101e-04
      5.060000877427e-03
      8.444817849847e-04
     -2.329340604949e-16
     -8.444817849849e-04
     -5.060000877426e-03
      5.618183119466e-03
      7.429706425384e-04
     -1.077425908907e-16
     -7.429706425388e-04
     -5.618183119465e-03
      1.459697283132e-03
      1.914536162079e-04
     -1.456049636330e-16
     -1.914536162084e-04
     -1.459697283131e-03
SCALARS eps22 double
LOOKUP_TABLE default
     -2.141864289358e-02
     -2.144754118432e-02
     -2.141048898707e-02
     -2.144754118432e-02
     -2.141864289358e-02
     -2.143751648740e-02
     -2.141715274100e-02
     -2.143351868606e-02
     -2.141715274100e-02
     -2.143751648740e-02
     -2.145648360277e-02
     -2.138707063009e-02
     -2.145574867714e-02
     -2.138707063009e-02
     -2.145648360277e-02
     -2.147612720449e-02
     -2.135588678337e-02
     -2.147882916713e-02
     -2.135588678337e-02
     -2.147612720449e-02
     -2.149705200726e-02
     -2.132214502701e-02
     -2.150446307431e-02
     -2.132214502701e-02
     -2.149705200726e-02
     -2.152936825886e-02
     -2.127921619300e-02
     -2.153915483180e-02
     -2.127921619300e-02
     -2.152936825886e-02
     -2.138390685882e-02
     -2.132826246540e-02
     -2.148958619097e-02
     -2.132826246540e-02
     -2.138390685882e-02
     -2.068567011582e-02
     -2.103759749569e-02
     -2.172796262924e-02
     -2.103759749569e-02
     -2.068567011583e-02
     -1.902723528448e-02
     -2.133300537250e-02
     -2.142715630890e-02
     -2.133300537250e-02
     -1.902723528449e-02
     -1.774073818127e-02
     -2.197130515554e-02
     -2.083446992063e-02
     -2.197130515554e-02
     -1.774073818128e-02
SCALARS sig11 double
LOOKUP_TABLE default
      1.152788592214e+04
      1.155514845306e+04
      1.152623894192e+04
      1.155514845306e+04
      1.152788592214e+04
      1.153152528398e+04
      1.155162426860e+04
      1.152600858714e+04
      1.155162426860e+04
      1.153152528398e+04
      1.153499612903e+04
      1.154844508916e+04
      1.152542525593e+04
      1.154844508916e+04
      1.153499612903e+04
      1.153840726259e+04
      1.154539329019e+04
      1.152470658675e+04
      1.154539329019e+04
      1.153840726259e+04
      1.154186774786e+04
      1.154224997000e+04
      1.152407225659e+04
      1.154224997000e+04
      1.154186774786e+04
      1.154434533798e+04
      1.153939898284e+04
      1.152318752116e+04
      1.153939898284e+04
      1.154434533798e+04
      1.148603986472e+04
      1.154244190942e+04
      1.152095562525e+04
      1.154244190942e+04
      1.148603986472e+04
      1.098047781854e+04
      1.168312814211e+04
      1.141649886424e+04
      1.168312814211e+04
      1.098047781854e+04
      9.960480676903e+03
      1.183536404731e+04
      1.132045390346e+04
      1.183536404731e+04
      9.960480676902e+03
      9.502650919533e+03
      1.183536950926e+04
      1.133862960298e+04
      1.183536950926e+04
      9.502650919533e+03
SCALARS sig12 double
LOOKUP_TABLE default
     -1.860996364768e+01
     -1.835840553787e+00
     -5.773159728051e-14
      1.835840553805e+00
      1.860996364769e+01
     -2.251229147546e+01
     -9.430760449711e-02
     -7.058242879054e-12
      9.430760447444e-02
      2.251229147546e+01
     -2.489005728748e+01
      8.559689387139e-01
     -7.396583345809e-12
     -8.559689386942e-01
      2.489005728749e+01
     -2.579226435527e+01
      1.030407069333e+00
      1.819711048512e-11
     -1.030407069335e+00
      2.579226435526e+01
     -2.517460682343e+01
      3.924216783121e-01
     -4.586553359331e-11
     -3.924216782977e-01
      2.517460682347e+01
     -2.263032611842e+01
     -1.216064372924e+00
      2.580768931892e-11
      1.216064372949e+00
      2.263032611845e+01
      1.088791760070e+02
      3.944484383889e+01
     -1.543154493078e-11
     -3.944484383892e+01
     -1.088791760070e+02
      8.173847571228e+02
      1.364162883437e+02
     -3.763211964269e-11
     -1.364162883437e+02
     -8.173847571227e+02
      9.075526577598e+02
      1.200183345639e+02
     -1.740829702612e-11
     -1.200183345640e+02
     -9.075526577597e+02
      2.357972534290e+02
      3.092712261820e+01
     -2.352007477668e-11
     -3.092712261828e+01
     -2.357972534289e+02
SCALARS sig21 double
LOOKUP_TABLE default
     -1.860996364768e+01
     -1.835840553787e+00
     -5.773159728051e-14
      1.835840553805e+00
      1.860996364769e+01
     -2.251229147546e+01
     -9.430760449711e-02
     -7.058242879054e-12
      9.430760447444e-02
      2.251229147546e+01
     -2.489005728748e+01
      8.559689387139e-01
     -7.396583345809e-12
     -8.559689386942e-01
      2.489005728749e+01
     -2.579226435527e+01
      1.030407069333e+00
      1.819711048512e-11
     -1.030407069335e+00
      2.579226435526e+01
     -2.517460682343e+01
      3.924216783121e-01
     -4.586553359331e-11
     -3.924216782977e-01
      2.517460682347e+01
     -2.263032611842e+01
     -1.216064372924e+00
      2.580768931892e-11
      1.216064372949e+00
      2.263032611845e+01
      1.088791760070e+02
      3.944484383889e+01
     -1.543154493078e-11
     -3.944484383892e+01
     -1.088791760070e+02
      8.173847571228e+02
      1.364162883437e+02
     -3.763211964269e-11
     -1.364162883437e+02
     -8.173847571227e+02
      9.075526577598e+02
      1.200183345639e+02
     -1.740829702612e-11
     -1.200183345640e+02
     -9.075526577597e+02
      2.357972534290e+02
      3.092712261820e+01
     -2.352007477668e-11
     -3.092712261828e+01
     -2.357972534289e+02
SCALARS sig22 double
LOOKUP_TABLE default
     -2.241206612003e+00
      2.773898884913e+00
     -1.065384545823e+00
      2.773898884915e+00
     -2.241206612004e+00
     -5.036924836988e+00
      8.276251809697e+00
     -6.478653945419e+00
      8.276251809700e+00
     -5.036924836989e+00
     -7.926446440856e+00
      1.385577192830e+01
     -1.185865097488e+01
      1.385577192830e+01
     -7.926446440858e+00
     -1.099767091756e+01
      1.974413040436e+01
     -1.749291897358e+01
      1.974413040435e+01
     -1.099767091757e+01
     -1.434340644051e+01
      2.618355233801e+01
     -2.368029179500e+01
      2.618355233801e+01
     -1.434340644051e+01
     -2.073917862415e+01
      3.486835470200e+01
     -3.206525431371e+01
      3.486835470200e+01
     -2.073917862415e+01
     -1.215922319661e+01
      2.485409553909e+01
     -2.158286402063e+01
      2.485409553908e+01
     -1.215922319661e+01
     -6.769711548395e+01
      1.522247267348e+02
     -1.213599946020e+02
      1.522247267349e+02
     -6.769711548526e+01
     -1.221230173069e+02
      1.492976376116e+02
     -9.310527749321e+01
      1.492976376118e+02
     -1.221230173091e+02
     -2.145182357028e+01
      2.000028514081e+00
      5.145808992423e+01
      2.000028514223e+00
     -2.145182357231e+01
