# vtk DataFile Version 3.0
truss_top_growth_BCTipp_C0_03.vtk
ASCII
DATASET UNSTRUCTURED_GRID
FIELD FieldData 2
TIME 1 1 double
4.000000e-01
CYCLE 1 1 int
3
POINTS 72 double
      0.000000000000e+00       0.000000000000e+00       0.000000000000e+00
      4.000000000000e+00       0.000000000000e+00       0.000000000000e+00
      8.000000000000e+00       0.000000000000e+00       0.000000000000e+00
      1.200000000000e+01       0.000000000000e+00       0.000000000000e+00
      1.600000000000e+01       0.000000000000e+00       0.000000000000e+00
      2.000000000000e+01       0.000000000000e+00       0.000000000000e+00
      0.000000000000e+00       2.000000000000e-01       0.000000000000e+00
      4.000000000000e+00       2.000000000000e-01       0.000000000000e+00
      8.000000000000e+00       2.000000000000e-01       0.000000000000e+00
      1.200000000000e+01       2.000000000000e-01       0.000000000000e+00
      1.600000000000e+01       2.000000000000e-01       0.000000000000e+00
      2.000000000000e+01       2.000000000000e-01       0.000000000000e+00
      0.000000000000e+00       4.000000000000e-01       0.000000000000e+00
      4.000000000000e+00       4.000000000000e-01       0.000000000000e+00
      8.000000000000e+00       4.000000000000e-01       0.000000000000e+00
      1.200000000000e+01       4.000000000000e-01       0.000000000000e+00
      1.600000000000e+01       4.000000000000e-01       0.000000000000e+00
      2.000000000000e+01       4.000000000000e-01       0.000000000000e+00
      0.000000000000e+00       6.000000000000e-01       0.000000000000e+00
      4.000000000000e+00       6.000000000000e-01       0.000000000000e+00
      8.000000000000e+00       6.000000000000e-01       0.000000000000e+00
      1.200000000000e+01       6.000000000000e-01       0.000000000000e+00
      1.600000000000e+01       6.000000000000e-01       0.000000000000e+00
      2.000000000000e+01       6.000000000000e-01       0.000000000000e+00
      0.000000000000e+00       8.000000000000e-01       0.000000000000e+00
      4.000000000000e+00       8.000000000000e-01       0.000000000000e+00
      8.000000000000e+00       8.000000000000e-01       0.000000000000e+00
      1.200000000000e+01       8.000000000000e-01       0.000000000000e+00
      1.600000000000e+01       8.000000000000e-01       0.000000000000e+00
      2.000000000000e+01       8.000000000000e-01       0.000000000000e+00
      0.000000000000e+00       1.000000000000e+00       0.000000000000e+00
      4.000000000000e+00       1.000000000000e+00       0.000000000000e+00
      8.000000000000e+00       1.000000000000e+00       0.000000000000e+00
      1.200000000000e+01       1.000000000000e+00       0.000000000000e+00
      1.600000000000e+01       1.000000000000e+00       0.000000000000e+00
      2.000000000000e+01       1.000000000000e+00       0.000000000000e+00
      0.000000000000e+00       1.000000000000e+00       0.000000000000e+00
      4.000000000000e+00       1.000000000000e+00       0.000000000000e+00
      8.000000000000e+00       1.000000000000e+00       0.000000000000e+00
      1.200000000000e+01       1.000000000000e+00       0.000000000000e+00
      1.600000000000e+01       1.000000000000e+00       0.000000000000e+00
      2.000000000000e+01       1.000000000000e+00       0.000000000000e+00
      0.000000000000e+00       1.200000000000e+00       0.000000000000e+00
      4.000000000000e+00       1.200000000000e+00       0.000000000000e+00
      8.000000000000e+00       1.200000000000e+00       0.000000000000e+00
      1.200000000000e+01       1.200000000000e+00       0.000000000000e+00
      1.600000000000e+01       1.200000000000e+00       0.000000000000e+00
      2.000000000000e+01       1.200000000000e+00       0.000000000000e+00
      0.000000000000e+00       1.400000000000e+00       0.000000000000e+00
      4.000000000000e+00       1.400000000000e+00       0.000000000000e+00
      8.000000000000e+00       1.400000000000e+00       0.000000000000e+00
      1.200000000000e+01       1.400000000000e+00       0.000000000000e+00
      1.600000000000e+01       1.400000000000e+00       0.000000000000e+00
      2.000000000000e+01       1.400000000000e+00       0.000000000000e+00
      0.000000000000e+00       1.600000000000e+00       0.000000000000e+00
      4.000000000000e+00       1.600000000000e+00       0.000000000000e+00
      8.000000000000e+00       1.600000000000e+00       0.000000000000e+00
      1.200000000000e+01       1.600000000000e+00       0.000000000000e+00
      1.600000000000e+01       1.600000000000e+00       0.000000000000e+00
      2.000000000000e+01       1.600000000000e+00       0.000000000000e+00
      0.000000000000e+00       1.800000000000e+00       0.000000000000e+00
      4.000000000000e+00       1.800000000000e+00       0.000000000000e+00
      8.000000000000e+00       1.800000000000e+00       0.000000000000e+00
      1.200000000000e+01       1.800000000000e+00       0.000000000000e+00
      1.600000000000e+01       1.800000000000e+00       0.000000000000e+00
      2.000000000000e+01       1.800000000000e+00       0.000000000000e+00
      0.000000000000e+00       2.000000000000e+00       0.000000000000e+00
      4.000000000000e+00       2.000000000000e+00       0.000000000000e+00
      8.000000000000e+00       2.000000000000e+00       0.000000000000e+00
      1.200000000000e+01       2.000000000000e+00       0.000000000000e+00
      1.600000000000e+01       2.000000000000e+00       0.000000000000e+00
      2.000000000000e+01       2.000000000000e+00       0.000000000000e+00
CELLS 50 250
4         0        1        7        6
4         1        2        8        7
4         2        3        9        8
4         3        4       10        9
4         4        5       11       10
4         6        7       13       12
4         7        8       14       13
4         8        9       15       14
4         9       10       16       15
4        10       11       17       16
4        12       13       19       18
4        13       14       20       19
4        14       15       21       20
4        15       16       22       21
4        16       17       23       22
4        18       19       25       24
4        19       20       26       25
4        20       21       27       26
4        21       22       28       27
4        22       23       29       28
4        24       25       31       30
4        25       26       32       31
4        26       27       33       32
4        27       28       34       33
4        28       29       35       34
4        36       37       43       42
4        37       38       44       43
4        38       39       45       44
4        39       40       46       45
4        40       41       47       46
4        42       43       49       48
4        43       44       50       49
4        44       45       51       50
4        45       46       52       51
4        46       47       53       52
4        48       49       55       54
4        49       50       56       55
4        50       51       57       56
4        51       52       58       57
4        52       53       59       58
4        54       55       61       60
4        55       56       62       61
4        56       57       63       62
4        57       58       64       63
4        58       59       65       64
4        60       61       67       66
4        61       62       68       67
4        62       63       69       68
4        63       64       70       69
4        64       65       71       70
CELL_TYPES 50
9
9
9
9
9
9
9
9
9
9
9
9
9
9
9
9
9
9
9
9
9
9
9
9
9
9
9
9
9
9
9
9
9
9
9
9
9
9
9
9
9
9
9
9
9
9
9
9
9
9
POINT_DATA 72
VECTORS DSPL double
      0.000000000000e+00       0.000000000000e+00       0.000000000000e+00
      1.960413920205e-01      -3.744050165698e-02       0.000000000000e+00
      3.981405767669e-01      -6.344619665036e-02       0.000000000000e+00
      5.981202114993e-01      -8.223345699334e-02       0.000000000000e+00
      7.995008644375e-01      -9.334632732069e-02       0.000000000000e+00
      1.000000000000e+00      -9.418755676301e-02       0.000000000000e+00
      0.000000000000e+00      -3.914791905818e-03       0.000000000000e+00
      1.978997273370e-01      -4.179603058653e-02       0.000000000000e+00
      3.991162921905e-01      -6.772706613139e-02       0.000000000000e+00
      5.989514229388e-01      -8.653279884618e-02       0.000000000000e+00
      7.997705406772e-01      -9.765555504170e-02       0.000000000000e+00
      1.000000000000e+00      -9.846020218036e-02       0.000000000000e+00
      0.000000000000e+00      -7.835938987058e-03       0.000000000000e+00
      1.997296541769e-01      -4.616494403816e-02       0.000000000000e+00
      4.001098860588e-01      -7.198653099253e-02       0.000000000000e+00
      5.997695831527e-01      -9.083039337778e-02       0.000000000000e+00
      8.000477457661e-01      -1.019570424385e-01       0.000000000000e+00
      1.000000000000e+00      -1.026941049837e-01       0.000000000000e+00
      0.000000000000e+00      -1.174915764671e-02       0.000000000000e+00
      2.015577520589e-01      -5.055122693510e-02       0.000000000000e+00
      4.011051461689e-01      -7.622324446978e-02       0.000000000000e+00
      6.005860936993e-01      -9.512654008755e-02       0.000000000000e+00
      8.003257853972e-01      -1.062510570009e-01       0.000000000000e+00
      1.000000000000e+00      -1.068885567717e-01       0.000000000000e+00
      0.000000000000e+00      -1.565322432805e-02       0.000000000000e+00
      2.034106750846e-01      -5.495475487335e-02       0.000000000000e+00
      4.020857467369e-01      -8.043704492756e-02       0.000000000000e+00
      6.014124595455e-01      -9.942117961736e-02       0.000000000000e+00
      8.005979049709e-01      -1.105383038648e-01       0.000000000000e+00
      1.000000000000e+00      -1.110392027351e-01       0.000000000000e+00
      0.000000000000e+00      -1.956049822635e-02       0.000000000000e+00
      2.053156941312e-01      -5.937112429744e-02       0.000000000000e+00
      4.030345302305e-01      -8.462904189577e-02       0.000000000000e+00
      6.022609348511e-01      -1.037138390697e-01       0.000000000000e+00
      8.008568845283e-01      -1.148200047346e-01       0.000000000000e+00
      1.000000000000e+00      -1.151376728244e-01       0.000000000000e+00
      0.000000000000e+00      -1.956049822635e-02       0.000000000000e+00
      2.053156941312e-01      -5.937112429744e-02       0.000000000000e+00
      4.030345302305e-01      -8.462904189577e-02       0.000000000000e+00
      6.022609348511e-01      -1.037138390697e-01       0.000000000000e+00
      8.008568845283e-01      -1.148200047346e-01       0.000000000000e+00
      1.000000000000e+00      -1.151376728244e-01       0.000000000000e+00
      9.846046971823e-03      -2.339549488557e-02       0.000000000000e+00
      2.057606371016e-01      -6.376517432026e-02       0.000000000000e+00
      4.045516998570e-01      -8.882178577905e-02       0.000000000000e+00
      6.028659970477e-01      -1.079914064727e-01       0.000000000000e+00
      8.012026995482e-01      -1.190978142503e-01       0.000000000000e+00
      1.000000000000e+00      -1.192199793117e-01       0.000000000000e+00
      1.939024381912e-02      -2.695252836574e-02       0.000000000000e+00
      2.062022282322e-01      -6.807184977061e-02       0.000000000000e+00
      4.061349511921e-01      -9.305837863880e-02       0.000000000000e+00
      6.032940757140e-01      -1.122328986596e-01       0.000000000000e+00
      8.020179711263e-01      -1.233623335003e-01       0.000000000000e+00
      9.969270709973e-01      -1.233534479054e-01       0.000000000000e+00
      3.087333434888e-02      -2.940228397554e-02       0.000000000000e+00
      2.067781453994e-01      -7.251196963125e-02       0.000000000000e+00
      4.078268226455e-01      -9.726166563597e-02       0.000000000000e+00
      6.033311263479e-01      -1.164171566560e-01       0.000000000000e+00
      8.038970042848e-01      -1.277993452797e-01       0.000000000000e+00
      9.838670857176e-01      -1.262211352922e-01       0.000000000000e+00
      4.657411787564e-02      -3.111760583046e-02       0.000000000000e+00
      2.069553760317e-01      -7.696146040951e-02       0.000000000000e+00
      4.096363348901e-01      -1.014483131409e-01       0.000000000000e+00
      6.033859577408e-01      -1.205907109680e-01       0.000000000000e+00
      8.056062027690e-01      -1.322582886110e-01       0.000000000000e+00
      9.707108638021e-01      -1.281318789033e-01       0.000000000000e+00
      5.298574800546e-02      -3.295331003999e-02       0.000000000000e+00
      2.081895459595e-01      -8.124772077914e-02       0.000000000000e+00
      4.108658357807e-01      -1.056634690748e-01       0.000000000000e+00
      6.040212248008e-01      -1.247919931333e-01       0.000000000000e+00
      8.062497012762e-01      -1.365583103772e-01       0.000000000000e+00
      9.665009769193e-01      -1.302113575118e-01       0.000000000000e+00
CELL_DATA 50
SCALARS eps11 double
LOOKUP_TABLE default
      4.924350957333e-02
      5.041305654602e-02
      4.997777987395e-02
      5.027435240069e-02
      5.009130160601e-02
      4.970398672211e-02
      5.019908312418e-02
      4.993720802767e-02
      5.013692147478e-02
      5.002280065127e-02
      5.016068795316e-02
      4.999132408343e-02
      4.989236419352e-02
      5.000236684941e-02
      4.995325692048e-02
      5.062025683826e-02
      4.977908258109e-02
      4.985015247517e-02
      4.986616438646e-02
      4.988434371903e-02
      5.108942203913e-02
      4.955146048711e-02
      4.981769780694e-02
      4.972362086996e-02
      4.981779879686e-02
      5.062664190726e-02
      4.947639008708e-02
      4.972819522327e-02
      4.960169994938e-02
      4.974656891870e-02
      4.735552801468e-02
      4.992492741965e-02
      4.940869793553e-02
      4.962052130824e-02
      4.935688251046e-02
      4.590008355469e-02
      5.003929190044e-02
      4.912922697955e-02
      4.986265886562e-02
      4.717676593692e-02
      4.166762367625e-02
      5.052807399977e-02
      4.861460320230e-02
      5.040464548338e-02
      4.281440794935e-02
      3.938517979283e-02
      5.067599287530e-02
      4.835691214147e-02
      5.056829906038e-02
      4.057225881801e-02
SCALARS eps12 double
LOOKUP_TABLE default
     -7.333175683809e-04
     -2.131785399502e-04
      1.111163005841e-04
     -4.174196766135e-05
      1.403560714938e-04
     -9.257306954311e-04
     -1.443868302127e-04
      7.527997915088e-05
     -3.261485685683e-05
      1.511055299977e-04
     -9.896699359224e-04
     -1.264488612461e-04
      7.007026034387e-05
     -3.701506655309e-05
      1.672213253477e-04
     -9.254461415781e-04
     -1.597631326475e-04
      9.587813209120e-05
     -5.528796867729e-05
      1.892676590442e-04
     -7.252010455151e-04
     -2.502090916770e-04
      1.567050301482e-04
     -9.008082374992e-05
      2.197182422235e-04
      1.987547904870e-03
      8.126035390945e-04
     -4.154596300304e-04
      2.050921244374e-04
      3.752701706397e-05
      1.850369652294e-03
      6.768316610458e-04
     -1.982054061702e-04
     -1.629942280971e-04
     -7.199378014113e-04
      4.218812194023e-03
      3.264778882159e-04
      3.151858698082e-04
     -1.013595945821e-03
     -4.908724907116e-03
      5.821131145320e-03
      7.203660571212e-04
      3.798038583053e-05
     -7.613111410148e-04
     -5.537434825820e-03
      1.382757527464e-03
      1.610873826975e-04
      4.658990200376e-05
     -2.245234825971e-04
     -1.422249815180e-03
SCALARS eps21 double
LOOKUP_TABLE default
     -7.333175683809e-04
     -2.131785399502e-04
      1.111163005841e-04
     -4.174196766135e-05
      1.403560714938e-04
     -9.257306954311e-04
     -1.443868302127e-04
      7.527997915088e-05
     -3.261485685683e-05
      1.511055299977e-04
     -9.896699359224e-04
     -1.264488612461e-04
      7.007026034387e-05
     -3.701506655309e-05
      1.672213253477e-04
     -9.254461415781e-04
     -1.597631326475e-04
      9.587813209120e-05
     -5.528796867729e-05
      1.892676590442e-04
     -7.252010455151e-04
     -2.502090916770e-04
      1.567050301482e-04
     -9.008082374992e-05
      2.197182422235e-04
      1.987547904870e-03
      8.126035390945e-04
     -4.154596300304e-04
      2.050921244374e-04
      3.752701706397e-05
      1.850369652294e-03
      6.768316610458e-04
     -1.982054061702e-04
     -1.629942280971e-04
     -7.199378014113e-04
      4.218812194023e-03
      3.264778882159e-04
      3.151858698082e-04
     -1.013595945821e-03
     -4.908724907116e-03
      5.821131145320e-03
      7.203660571212e-04
      3.798038583053e-05
     -7.613111410148e-04
     -5.537434825820e-03
      1.382757527464e-03
      1.610873826975e-04
      4.658990200376e-05
     -2.245234825971e-04
     -1.422249815180e-03
SCALARS eps22 double
LOOKUP_TABLE default
     -2.116411237490e-02
     -2.153218280018e-02
     -2.143173171070e-02
     -2.154737597835e-02
     -2.146745427873e-02
     -2.140649989284e-02
     -2.135394302203e-02
     -2.148666935762e-02
     -2.143221461631e-02
     -2.146353025406e-02
     -2.164962337121e-02
     -2.117548283656e-02
     -2.153998968961e-02
     -2.131886844154e-02
     -2.145889280394e-02
     -2.189678672934e-02
     -2.098984475752e-02
     -2.159910407445e-02
     -2.120023832716e-02
     -2.145688325439e-02
     -2.215127419300e-02
     -2.078997341179e-02
     -2.167172117042e-02
     -2.106883824197e-02
     -2.146105012567e-02
     -2.189726758034e-02
     -2.077596680929e-02
     -2.162835478884e-02
     -2.100635022921e-02
     -2.144550302600e-02
     -2.044414298557e-02
     -2.125640391663e-02
     -2.123449454380e-02
     -2.121064021849e-02
     -2.117775608270e-02
     -1.968334800298e-02
     -2.100585541291e-02
     -2.139002099668e-02
     -2.090553027375e-02
     -2.042779056057e-02
     -1.835093244484e-02
     -2.114895501001e-02
     -2.113377017331e-02
     -2.109924330021e-02
     -1.876754211367e-02
     -1.694026543030e-02
     -2.171957060621e-02
     -2.052737317786e-02
     -2.167313742459e-02
     -1.746160897354e-02
SCALARS sig11 double
LOOKUP_TABLE default
      1.135664774550e+04
      1.164267653049e+04
      1.153179719942e+04
      1.160162522359e+04
      1.155956099331e+04
      1.145745491327e+04
      1.160378232474e+04
      1.151367194334e+04
      1.157672679993e+04
      1.154067171102e+04
      1.155710549371e+04
      1.156667157993e+04
      1.149453497308e+04
      1.155242156740e+04
      1.152157407820e+04
      1.165707729091e+04
      1.152916330711e+04
      1.147544010992e+04
      1.152829067346e+04
      1.150233631091e+04
      1.175887454922e+04
      1.148903147435e+04
      1.145746758439e+04
      1.150391434354e+04
      1.148301974081e+04
      1.165882404386e+04
      1.146950660349e+04
      1.143741989639e+04
      1.147701890023e+04
      1.146476719310e+04
      1.091015694244e+04
      1.153809785373e+04
      1.139481815435e+04
      1.145758903567e+04
      1.138704441505e+04
      1.059088722760e+04
      1.160078272760e+04
      1.129697123693e+04
      1.156300470385e+04
      1.086160343733e+04
      9.555830646892e+03
      1.172162060064e+04
      1.118253682658e+04
      1.169275107335e+04
      9.829543875756e+03
      9.081509052763e+03
      1.169430385477e+04
      1.118315687421e+04
      1.166948520024e+04
      9.353924386374e+03
SCALARS sig12 double
LOOKUP_TABLE default
     -1.184589918154e+02
     -3.443653337658e+01
      1.794955624820e+01
     -6.742933237602e+00
      2.267290385670e+01
     -1.495411123389e+02
     -2.332402641898e+01
      1.216061201668e+01
     -5.268553799949e+00
      2.440935484579e+01
     -1.598697588798e+02
     -2.042635450899e+01
      1.131904205555e+01
     -5.979356904730e+00
      2.701267563308e+01
     -1.494951459472e+02
     -2.580789065844e+01
      1.548800595319e+01
     -8.931133401717e+00
      3.057400646099e+01
     -1.171478611986e+02
     -4.041839173244e+01
      2.531388948548e+01
     -1.455151768268e+01
      3.549294682071e+01
      3.210654307866e+02
      1.312667255460e+02
     -6.711270946646e+01
      3.313026625527e+01
      6.062056602642e+00
      2.989058669091e+02
      1.093343452459e+02
     -3.201779638133e+01
     -2.632983684645e+01
     -1.162976448434e+02
      6.815004313421e+02
      5.273873578872e+01
      5.091464050747e+01
     -1.637347297095e+02
     -7.929478696111e+02
      9.403365696286e+02
      1.163668246119e+02
      6.135293095701e+00
     -1.229810304716e+02
     -8.945087026324e+02
      2.233685236672e+02
      2.602180797421e+01
      7.526061092915e+00
     -3.626917795799e+01
     -2.297480470675e+02
SCALARS sig21 double
LOOKUP_TABLE default
     -1.184589918154e+02
     -3.443653337658e+01
      1.794955624820e+01
     -6.742933237602e+00
      2.267290385670e+01
     -1.495411123389e+02
     -2.332402641898e+01
      1.216061201668e+01
     -5.268553799949e+00
      2.440935484579e+01
     -1.598697588798e+02
     -2.042635450899e+01
      1.131904205555e+01
     -5.979356904730e+00
      2.701267563308e+01
     -1.494951459472e+02
     -2.580789065844e+01
      1.548800595319e+01
     -8.931133401717e+00
      3.057400646099e+01
     -1.171478611986e+02
     -4.041839173244e+01
      2.531388948548e+01
     -1.455151768268e+01
      3.549294682071e+01
      3.210654307866e+02
      1.312667255460e+02
     -6.711270946646e+01
      3.313026625527e+01
      6.062056602642e+00
      2.989058669091e+02
      1.093343452459e+02
     -3.201779638133e+01
     -2.632983684645e+01
     -1.162976448434e+02
      6.815004313421e+02
      5.273873578872e+01
      5.091464050747e+01
     -1.637347297095e+02
     -7.929478696111e+02
      9.403365696286e+02
      1.163668246119e+02
      6.135293095701e+00
     -1.229810304716e+02
     -8.945087026324e+02
      2.233685236672e+02
      2.602180797421e+01
      7.526061092915e+00
     -3.626917795799e+01
     -2.297480470675e+02
SCALARS sig22 double
LOOKUP_TABLE default
     -1.689118459707e+01
      2.075325148708e+01
     -3.585441179983e+00
     -3.462837970887e-01
      6.965808696441e-02
     -2.962369375965e+01
      4.521656266326e+01
     -2.403132659057e+01
      1.555866214111e+01
     -7.120204454255e+00
     -4.302172022803e+01
      7.049507746631e+01
     -4.453757727268e+01
      3.129894347561e+01
     -1.423472344131e+01
     -5.721436231243e+01
      9.725966010084e+01
     -6.636287117191e+01
      4.833331202934e+01
     -2.201573864597e+01
     -7.231484212748e+01
      1.261844599138e+02
     -9.082317349021e+01
      6.820941007209e+01
     -3.125585436830e+01
     -5.657671952328e+01
      1.210489510018e+02
     -8.940741325803e+01
      7.110310214651e+01
     -3.549058258525e+01
     -4.209760375879e+01
      3.957509940972e+01
     -1.677447692274e+01
      1.563217365516e+01
     -7.012588458974e+00
     -3.359408638738e+00
      1.242589308282e+02
     -9.459959000145e+01
      1.312203044106e+02
     -5.913261226450e+01
     -1.394745726684e+02
      1.430236067565e+02
     -8.450810333062e+01
      1.421228852334e+02
     -1.183095959628e+02
     -1.721671405066e+01
     -3.640922469342e-01
      5.569539955318e+01
     -2.853088685988e-01
     -2.077733379893e+01
