# vtk DataFile Version 3.0
truss_upper_top_growth_BCTipp_C1_01.vtk
ASCII
DATASET UNSTRUCTURED_GRID
FIELD FieldData 2
TIME 1 1 double
0.000000e+00
CYCLE 1 1 int
1
POINTS 72 double
      0.000000000000e+00       0.000000000000e+00       0.000000000000e+00
      4.000000000000e+00       0.000000000000e+00       0.000000000000e+00
      8.000000000000e+00       0.000000000000e+00       0.000000000000e+00
      1.200000000000e+01       0.000000000000e+00       0.000000000000e+00
      1.600000000000e+01       0.000000000000e+00       0.000000000000e+00
      2.000000000000e+01       0.000000000000e+00       0.000000000000e+00
      0.000000000000e+00       2.000000000000e-01       0.000000000000e+00
      4.000000000000e+00       2.000000000000e-01       0.000000000000e+00
      8.000000000000e+00       2.000000000000e-01       0.000000000000e+00
      1.200000000000e+01       2.000000000000e-01       0.000000000000e+00
      1.600000000000e+01       2.000000000000e-01       0.000000000000e+00
      2.000000000000e+01       2.000000000000e-01       0.000000000000e+00
      0.000000000000e+00       4.000000000000e-01       0.000000000000e+00
      4.000000000000e+00       4.000000000000e-01       0.000000000000e+00
      8.000000000000e+00       4.000000000000e-01       0.000000000000e+00
      1.200000000000e+01       4.000000000000e-01       0.000000000000e+00
      1.600000000000e+01       4.000000000000e-01       0.000000000000e+00
      2.000000000000e+01       4.000000000000e-01       0.000000000000e+00
      0.000000000000e+00       6.000000000000e-01       0.000000000000e+00
      4.000000000000e+00       6.000000000000e-01       0.000000000000e+00
      8.000000000000e+00       6.000000000000e-01       0.000000000000e+00
      1.200000000000e+01       6.000000000000e-01       0.000000000000e+00
      1.600000000000e+01       6.000000000000e-01       0.000000000000e+00
      2.000000000000e+01       6.000000000000e-01       0.000000000000e+00
      0.000000000000e+00       8.000000000000e-01       0.000000000000e+00
      4.000000000000e+00       8.000000000000e-01       0.000000000000e+00
      8.000000000000e+00       8.000000000000e-01       0.000000000000e+00
      1.200000000000e+01       8.000000000000e-01       0.000000000000e+00
      1.600000000000e+01       8.000000000000e-01       0.000000000000e+00
      2.000000000000e+01       8.000000000000e-01       0.000000000000e+00
      0.000000000000e+00       1.000000000000e+00       0.000000000000e+00
      4.000000000000e+00       1.000000000000e+00       0.000000000000e+00
      8.000000000000e+00       1.000000000000e+00       0.000000000000e+00
      1.200000000000e+01       1.000000000000e+00       0.000000000000e+00
      1.600000000000e+01       1.000000000000e+00       0.000000000000e+00
      2.000000000000e+01       1.000000000000e+00       0.000000000000e+00
      0.000000000000e+00       1.000000000000e+00       0.000000000000e+00
      4.000000000000e+00       1.000000000000e+00       0.000000000000e+00
      8.000000000000e+00       1.000000000000e+00       0.000000000000e+00
      1.200000000000e+01       1.000000000000e+00       0.000000000000e+00
      1.600000000000e+01       1.000000000000e+00       0.000000000000e+00
      2.000000000000e+01       1.000000000000e+00       0.000000000000e+00
      0.000000000000e+00       1.200000000000e+00       0.000000000000e+00
      4.000000000000e+00       1.200000000000e+00       0.000000000000e+00
      8.000000000000e+00       1.200000000000e+00       0.000000000000e+00
      1.200000000000e+01       1.200000000000e+00       0.000000000000e+00
      1.600000000000e+01       1.200000000000e+00       0.000000000000e+00
      2.000000000000e+01       1.200000000000e+00       0.000000000000e+00
      0.000000000000e+00       1.400000000000e+00       0.000000000000e+00
      4.000000000000e+00       1.400000000000e+00       0.000000000000e+00
      8.000000000000e+00       1.400000000000e+00       0.000000000000e+00
      1.200000000000e+01       1.400000000000e+00       0.000000000000e+00
      1.600000000000e+01       1.400000000000e+00       0.000000000000e+00
      2.000000000000e+01       1.400000000000e+00       0.000000000000e+00
      0.000000000000e+00       1.600000000000e+00       0.000000000000e+00
      4.000000000000e+00       1.600000000000e+00       0.000000000000e+00
      8.000000000000e+00       1.600000000000e+00       0.000000000000e+00
      1.200000000000e+01       1.600000000000e+00       0.000000000000e+00
      1.600000000000e+01       1.600000000000e+00       0.000000000000e+00
      2.000000000000e+01       1.600000000000e+00       0.000000000000e+00
      0.000000000000e+00       1.800000000000e+00       0.000000000000e+00
      4.000000000000e+00       1.800000000000e+00       0.000000000000e+00
      8.000000000000e+00       1.800000000000e+00       0.000000000000e+00
      1.200000000000e+01       1.800000000000e+00       0.000000000000e+00
      1.600000000000e+01       1.800000000000e+00       0.000000000000e+00
      2.000000000000e+01       1.800000000000e+00       0.000000000000e+00
      0.000000000000e+00       2.000000000000e+00       0.000000000000e+00
      4.000000000000e+00       2.000000000000e+00       0.000000000000e+00
      8.000000000000e+00       2.000000000000e+00       0.000000000000e+00
      1.200000000000e+01       2.000000000000e+00       0.000000000000e+00
      1.600000000000e+01       2.000000000000e+00       0.000000000000e+00
      2.000000000000e+01       2.000000000000e+00       0.000000000000e+00
CELLS 50 250
4         0        1        7        6
4         1        2        8        7
4         2        3        9        8
4         3        4       10        9
4         4        5       11       10
4         6        7       13       12
4         7        8       14       13
4         8        9       15       14
4         9       10       16       15
4        10       11       17       16
4        12       13       19       18
4        13       14       20       19
4        14       15       21       20
4        15       16       22       21
4        16       17       23       22
4        18       19       25       24
4        19       20       26       25
4        20       21       27       26
4        21       22       28       27
4        22       23       29       28
4        24       25       31       30
4        25       26       32       31
4        26       27       33       32
4        27       28       34       33
4        28       29       35       34
4        36       37       43       42
4        37       38       44       43
4        38       39       45       44
4        39       40       46       45
4        40       41       47       46
4        42       43       49       48
4        43       44       50       49
4        44       45       51       50
4        45       46       52       51
4        46       47       53       52
4        48       49       55       54
4        49       50       56       55
4        50       51       57       56
4        51       52       58       57
4        52       53       59       58
4        54       55       61       60
4        55       56       62       61
4        56       57       63       62
4        57       58       64       63
4        58       59       65       64
4        60       61       67       66
4        61       62       68       67
4        62       63       69       68
4        63       64       70       69
4        64       65       71       70
CELL_TYPES 50
9
9
9
9
9
9
9
9
9
9
9
9
9
9
9
9
9
9
9
9
9
9
9
9
9
9
9
9
9
9
9
9
9
9
9
9
9
9
9
9
9
9
9
9
9
9
9
9
9
9
POINT_DATA 72
VECTORS DSPL double
      0.000000000000e+00       0.000000000000e+00       0.000000000000e+00
     -3.479030965239e-03      -3.869671090625e-03       0.000000000000e+00
      9.758928656906e-03      -1.475428759392e-03       0.000000000000e+00
     -3.539227225124e-02      -8.124091936902e-03       0.000000000000e+00
      6.626452424769e-02      -3.871249620385e-01       0.000000000000e+00
      1.000000000000e+00      -8.500948980430e-01       0.000000000000e+00
      0.000000000000e+00      -4.718684628841e-04       0.000000000000e+00
     -2.782160942365e-03      -3.964433576250e-03       0.000000000000e+00
      8.195200808908e-03      -1.409807391190e-03       0.000000000000e+00
     -2.895557640369e-02      -7.098127453778e-03       0.000000000000e+00
      9.347380309927e-02      -3.963589325953e-01       0.000000000000e+00
      1.000000000000e+00      -8.852983220619e-01       0.000000000000e+00
      0.000000000000e+00      -7.660399935827e-04       0.000000000000e+00
     -2.187344091228e-03      -4.010394662188e-03       0.000000000000e+00
      6.803745653798e-03      -1.332898919470e-03       0.000000000000e+00
     -2.257310793682e-02      -6.325443311548e-03       0.000000000000e+00
      1.124250717625e-01      -4.007211591815e-01       0.000000000000e+00
      1.000000000000e+00      -9.084258372324e-01       0.000000000000e+00
      0.000000000000e+00      -9.867953448748e-04       0.000000000000e+00
     -1.717174170668e-03      -4.241255555353e-03       0.000000000000e+00
      5.748498860893e-03      -1.338917264954e-03       0.000000000000e+00
     -1.678559174185e-02      -6.053563727041e-03       0.000000000000e+00
      1.328381913868e-01      -4.243888211050e-01       0.000000000000e+00
      1.000000000000e+00      -9.768483151356e-01       0.000000000000e+00
      0.000000000000e+00      -9.119475240447e-04       0.000000000000e+00
     -1.074433536069e-03      -3.729971318604e-03       0.000000000000e+00
      3.983284730806e-03      -1.170746510255e-03       0.000000000000e+00
     -9.376557396559e-03      -4.940907140411e-03       0.000000000000e+00
      1.240527561287e-01      -3.747008241827e-01       0.000000000000e+00
      1.000000000000e+00      -8.762454235656e-01       0.000000000000e+00
      0.000000000000e+00      -1.244987127777e-03       0.000000000000e+00
     -1.621031690516e-03      -5.863007169007e-03       0.000000000000e+00
      6.009371839276e-03      -2.007805917532e-03       0.000000000000e+00
     -1.226450415141e-02      -7.295405119436e-03       0.000000000000e+00
      1.841843075711e-01      -5.952786793247e-01       0.000000000000e+00
      1.000000000000e+00      -1.418562206311e+00       0.000000000000e+00
      0.000000000000e+00      -1.244987127777e-03       0.000000000000e+00
     -1.621031690516e-03      -5.863007169007e-03       0.000000000000e+00
      6.009371839276e-03      -2.007805917532e-03       0.000000000000e+00
     -1.226450415141e-02      -7.295405119436e-03       0.000000000000e+00
      1.841843075711e-01      -5.952786793247e-01       0.000000000000e+00
      1.000000000000e+00      -1.418562206311e+00       0.000000000000e+00
      0.000000000000e+00      -1.994034213963e-03       0.000000000000e+00
     -8.504911754281e-04      -8.157514130173e-03       0.000000000000e+00
      5.107334993090e-03      -2.412765666597e-03       0.000000000000e+00
     -4.334954675997e-03      -1.065703531223e-02       0.000000000000e+00
      3.044590142638e-01      -8.175483308256e-01       0.000000000000e+00
      1.000000000000e+00      -1.934676459548e+00       0.000000000000e+00
      0.000000000000e+00      -2.023757134614e-03       0.000000000000e+00
      1.025321020017e-03      -8.015512163479e-03       0.000000000000e+00
      6.700417353418e-04      -1.778974875630e-03       0.000000000000e+00
      1.284091603486e-02      -1.208966790663e-02       0.000000000000e+00
      3.626469172813e-01      -7.880728438923e-01       0.000000000000e+00
      1.000000000000e+00      -1.846734388397e+00       0.000000000000e+00
     -2.314653014867e-03      -1.721491682420e-03       0.000000000000e+00
      3.838198978182e-03      -7.204036088012e-03       0.000000000000e+00
     -5.503594078286e-03      -7.486501612066e-04       0.000000000000e+00
      3.186156143559e-02      -1.357407090481e-02       0.000000000000e+00
      4.066999014228e-01      -6.871085703775e-01       0.000000000000e+00
      1.026407615073e+00      -1.578955521628e+00       0.000000000000e+00
     -4.843010177407e-03      -1.116486128972e-03       0.000000000000e+00
      6.090972297168e-03      -6.390116487174e-03       0.000000000000e+00
     -1.053864257404e-02       2.587822413589e-04       0.000000000000e+00
      5.040874510672e-02      -1.592928036349e-02       0.000000000000e+00
      4.401028188705e-01      -5.884891791627e-01       0.000000000000e+00
      1.041457585302e+00      -1.319127482399e+00       0.000000000000e+00
     -5.743956027630e-03      -6.058217441771e-04       0.000000000000e+00
      6.869472846759e-03      -6.813942446963e-03       0.000000000000e+00
     -1.217298430988e-02       6.941952913149e-04       0.000000000000e+00
      6.095699362475e-02      -2.077084744296e-02       0.000000000000e+00
      4.917794038279e-01      -6.231064658109e-01       0.000000000000e+00
      1.030867084373e+00      -1.382395126598e+00       0.000000000000e+00
CELL_DATA 50
SCALARS eps11 double
LOOKUP_TABLE default
     -7.802430277711e-04
      3.019585532585e-03
     -1.028298874502e-02
      2.809468274550e-02
      2.299489634947e-01
     -6.193418743898e-04
      2.491955831770e-03
     -8.311274867412e-03
      3.243635843868e-02
      2.240023024714e-01
     -4.847174154390e-04
      2.041993648475e-03
     -6.454748647407e-03
      3.523413168041e-02
      2.196633407340e-01
     -3.594887770586e-04
      1.617298029704e-03
     -4.618006196673e-03
      3.700942046452e-02
      2.163507764795e-01
     -2.768395567301e-04
      1.326614439367e-03
     -3.235938395234e-03
      3.630640028150e-02
      2.158797632311e-01
     -3.932636675530e-04
      2.037490391986e-03
     -4.432298689601e-03
      6.729085587625e-02
      1.854972160889e-01
      6.012405320185e-05
      5.547120179458e-04
      7.762853256421e-04
      8.116170151778e-02
      1.674471770854e-01
      7.235130216054e-04
     -9.551356868335e-04
      5.607578261265e-03
      9.240965797496e-02
      1.546079087697e-01
      2.324046267294e-03
     -3.574203178313e-03
      1.294066207505e-02
      9.416146160495e-02
      1.551869832097e-01
      2.884471296518e-03
     -4.334355963181e-03
      1.658306160591e-02
      1.028749588322e-01
      1.418308884506e-01
SCALARS eps12 double
LOOKUP_TABLE default
     -3.841245825888e-04
      1.254711963306e-03
     -9.799967425031e-04
     -4.927236381128e-03
     -6.427345149485e-03
     -2.187156883110e-04
      9.496802434389e-04
     -1.119730261510e-04
     -1.378053797396e-02
     -2.935008428642e-02
     -3.023612638385e-04
      9.342053013587e-04
      5.096323223097e-04
     -1.593377008698e-02
     -2.697084788018e-02
      1.368435431134e-04
      4.975407677167e-04
      1.326687299127e-04
     -3.609392434898e-02
     -1.069363808455e-01
     -1.974026231069e-03
      1.787921975452e-03
      1.962118121633e-03
     -1.252645822961e-02
      8.600807293449e-02
     -1.926832223300e-03
      3.652638934913e-03
      3.358094252041e-04
      2.971751561029e-02
      1.505899589129e-01
      1.079954317969e-04
      2.446558374201e-03
     -1.752322934333e-03
      6.315339730886e-03
     -2.674248250733e-02
     -5.020558673067e-04
      2.869035797497e-03
     -5.910620378098e-03
      4.749665633046e-03
     -4.251527954452e-02
      7.224145340960e-05
      1.299513164341e-03
     -1.721203444431e-03
      1.162753985864e-02
     -4.146143889699e-02
     -8.737655327582e-05
      7.282042953992e-04
      1.797623789241e-03
     -2.092110550599e-03
      4.328496429286e-03
SCALARS eps21 double
LOOKUP_TABLE default
     -3.841245825888e-04
      1.254711963306e-03
     -9.799967425031e-04
     -4.927236381128e-03
     -6.427345149485e-03
     -2.187156883110e-04
      9.496802434389e-04
     -1.119730261510e-04
     -1.378053797396e-02
     -2.935008428642e-02
     -3.023612638385e-04
      9.342053013587e-04
      5.096323223097e-04
     -1.593377008698e-02
     -2.697084788018e-02
      1.368435431134e-04
      4.975407677167e-04
      1.326687299127e-04
     -3.609392434898e-02
     -1.069363808455e-01
     -1.974026231069e-03
      1.787921975452e-03
      1.962118121633e-03
     -1.252645822961e-02
      8.600807293449e-02
     -1.926832223300e-03
      3.652638934913e-03
      3.358094252041e-04
      2.971751561029e-02
      1.505899589129e-01
      1.079954317969e-04
      2.446558374201e-03
     -1.752322934333e-03
      6.315339730886e-03
     -2.674248250733e-02
     -5.020558673067e-04
      2.869035797497e-03
     -5.910620378098e-03
      4.749665633046e-03
     -4.251527954452e-02
      7.224145340960e-05
      1.299513164341e-03
     -1.721203444431e-03
      1.162753985864e-02
     -4.146143889699e-02
     -8.737655327582e-05
      7.282042953992e-04
      1.797623789241e-03
     -2.092110550599e-03
      4.328496429286e-03
SCALARS eps22 double
LOOKUP_TABLE default
      7.755211498333e-04
     -2.084349545141e-03
      4.073828662319e-03
     -1.251464742250e-02
     -1.060075888492e-01
      5.446712167018e-04
     -1.213183554583e-03
      2.937111793204e-03
     -4.928081035941e-03
     -6.141148125304e-02
      5.244456540524e-04
     -2.441474436448e-03
      2.469716618788e-03
     -4.011331983699e-02
     -2.312554235172e-01
     -1.288907653432e-04
      3.942483302882e-03
     -1.147768992526e-04
      9.062610027173e-02
      4.101531261377e-01
      1.410865719845e-03
     -1.758126974088e-02
      4.521650643316e-03
     -3.892431614188e-01
     -1.989061340734e+00
      2.066371070996e-03
     -1.928642887085e-02
      7.159801953825e-03
     -4.006950219891e-01
     -1.946895793734e+00
      2.072575335613e-04
      1.746202028262e-03
      3.280188653426e-04
      4.030322671242e-02
      3.003824171038e-01
     -5.114200159210e-04
      8.142244130060e-03
     -2.394957571759e-03
      1.624899346326e-01
      9.544293284181e-01
     -1.488921980952e-03
      9.602449246563e-03
     -5.455049659193e-03
      1.557983592969e-01
      9.307856317525e-01
     -1.506364832591e-03
      2.576541585774e-04
     -6.130555557653e-03
     -8.311634763592e-02
     -2.611809154839e-01
SCALARS sig11 double
LOOKUP_TABLE default
     -1.266113320055e+02
      6.010866383579e+02
     -2.413361807291e+03
      6.425953030714e+03
      5.216157603119e+04
     -1.090941709290e+02
      5.574748910221e+02
     -1.993691081803e+03
      8.572453048502e+03
      5.588349066221e+04
     -7.348727666200e+01
      2.814618785183e+02
     -1.525492123433e+03
      5.100535014019e+03
      3.407965270444e+04
     -1.172403239312e+02
      9.348447277847e+02
     -1.319380491469e+03
      2.144197908732e+04
      1.108523290176e+05
      9.267139521333e+01
     -1.755014752093e+03
     -3.669595260970e+02
     -3.689476601539e+04
     -1.799548832140e+05
      1.391761891201e+02
     -1.760642175465e+03
     -3.855392005392e+02
     -2.952313571443e+04
     -1.834352773850e+05
      4.210665468276e+01
      3.683719123433e+02
      2.591906372807e+02
      2.782667962691e+04
      8.372851405595e+04
      1.425710637942e+02
      7.164546812101e+02
      1.295060918048e+03
      4.580978000803e+04
      1.593392505375e+05
      4.766013778697e+02
      1.529739140797e+02
      2.997325377891e+03
      4.549429133007e+04
      1.566384256389e+05
      6.329159541055e+02
     -1.194073297302e+03
      3.945163569109e+03
      1.901209432167e+04
      8.451428705281e+03
SCALARS sig12 double
LOOKUP_TABLE default
     -6.205089411050e+01
      2.026842402264e+02
     -1.583071660967e+02
     -7.959381846437e+02
     -1.038263447224e+03
     -3.533099580408e+01
      1.534098854786e+02
     -1.808795037824e+01
     -2.226086903485e+03
     -4.741167461652e+03
     -4.884297338930e+01
      1.509100871426e+02
      8.232522129619e+01
     -2.573916706358e+03
     -4.356829272951e+03
      2.210549542601e+01
      8.037197016961e+01
      2.143110252436e+01
     -5.830557010220e+03
     -1.727433844428e+04
     -3.188811604034e+02
      2.888181652653e+02
      3.169575427253e+02
     -2.023504790938e+03
      1.389361178173e+04
     -3.112575129945e+02
      5.900416741013e+02
      5.424613791759e+01
      4.800521752432e+03
      2.432607028593e+04
      1.744541590566e+01
      3.952132758325e+02
     -2.830675509308e+02
      1.020170264220e+03
     -4.319939481954e+03
     -8.110133241108e+01
      4.634596288264e+02
     -9.547925226158e+02
      7.672536791844e+02
     -6.867852849499e+03
      1.166977324309e+01
      2.099213573166e+02
     -2.780405564081e+02
      1.878294900241e+03
     -6.697617052591e+03
     -1.411467399071e+01
      1.176330015645e+02
      2.903853813389e+02
     -3.379563197121e+02
      6.992186539615e+02
SCALARS sig21 double
LOOKUP_TABLE default
     -6.205089411050e+01
      2.026842402264e+02
     -1.583071660967e+02
     -7.959381846437e+02
     -1.038263447224e+03
     -3.533099580408e+01
      1.534098854786e+02
     -1.808795037824e+01
     -2.226086903485e+03
     -4.741167461652e+03
     -4.884297338930e+01
      1.509100871426e+02
      8.232522129619e+01
     -2.573916706358e+03
     -4.356829272951e+03
      2.210549542601e+01
      8.037197016961e+01
      2.143110252436e+01
     -5.830557010220e+03
     -1.727433844428e+04
     -3.188811604034e+02
      2.888181652653e+02
      3.169575427253e+02
     -2.023504790938e+03
      1.389361178173e+04
     -3.112575129945e+02
      5.900416741013e+02
      5.424613791759e+01
      4.800521752432e+03
      2.432607028593e+04
      1.744541590566e+01
      3.952132758325e+02
     -2.830675509308e+02
      1.020170264220e+03
     -4.319939481954e+03
     -8.110133241108e+01
      4.634596288264e+02
     -9.547925226158e+02
      7.672536791844e+02
     -6.867852849499e+03
      1.166977324309e+01
      2.099213573166e+02
     -2.780405564081e+02
      1.878294900241e+03
     -6.697617052591e+03
     -1.411467399071e+01
      1.176330015645e+02
      2.903853813389e+02
     -3.379563197121e+02
      6.992186539615e+02
SCALARS sig22 double
LOOKUP_TABLE default
      1.247044197614e+02
     -2.233951818902e+02
     -9.418361072150e+01
     -1.340156887328e+02
     -2.108328578206e+03
      7.893871301653e+01
     -4.104762523486e+01
     -1.766440058578e+02
      2.536658979525e+03
      9.778187137497e+03
      8.953137302508e+01
     -4.427906582769e+02
     -8.384773427847e+01
     -7.070976384946e+03
     -3.876107075152e+04
     -7.998987588490e+01
      1.310451579606e+03
     -5.919357588087e+02
      3.010313505617e+04
      1.421588624240e+05
      3.653007091216e+02
     -4.809365273518e+03
      8.861894724379e+02
     -1.056373875208e+05
     -5.361376769314e+05
      5.365018007318e+02
     -5.205275287154e+03
      1.487030903399e+03
     -1.051208544465e+05
     -5.278987635872e+05
      6.587437074082e+01
      5.608433755482e+02
      1.867783629246e+02
      2.122646446605e+04
      1.052026682128e+05
     -5.691811919086e+01
      2.186031420862e+03
      2.343591175135e+00
      5.713044008350e+04
      2.885411721730e+05
     -1.393396468469e+02
      2.281510075021e+03
      2.571040543610e+01
      5.545102095723e+04
      2.819274380958e+05
     -7.637295905829e+01
     -4.522870468644e+02
      2.760407965335e+02
     -1.103265518472e+04
     -5.665047808413e+04
