# vtk DataFile Version 3.0
truss_upper_top_growth_BCTipp_C1_04.vtk
ASCII
DATASET UNSTRUCTURED_GRID
FIELD FieldData 2
TIME 1 1 double
6.000000e-01
CYCLE 1 1 int
4
POINTS 72 double
      0.000000000000e+00       0.000000000000e+00       0.000000000000e+00
      4.000000000000e+00       0.000000000000e+00       0.000000000000e+00
      8.000000000000e+00       0.000000000000e+00       0.000000000000e+00
      1.200000000000e+01       0.000000000000e+00       0.000000000000e+00
      1.600000000000e+01       0.000000000000e+00       0.000000000000e+00
      2.000000000000e+01       0.000000000000e+00       0.000000000000e+00
      0.000000000000e+00       2.000000000000e-01       0.000000000000e+00
      4.000000000000e+00       2.000000000000e-01       0.000000000000e+00
      8.000000000000e+00       2.000000000000e-01       0.000000000000e+00
      1.200000000000e+01       2.000000000000e-01       0.000000000000e+00
      1.600000000000e+01       2.000000000000e-01       0.000000000000e+00
      2.000000000000e+01       2.000000000000e-01       0.000000000000e+00
      0.000000000000e+00       4.000000000000e-01       0.000000000000e+00
      4.000000000000e+00       4.000000000000e-01       0.000000000000e+00
      8.000000000000e+00       4.000000000000e-01       0.000000000000e+00
      1.200000000000e+01       4.000000000000e-01       0.000000000000e+00
      1.600000000000e+01       4.000000000000e-01       0.000000000000e+00
      2.000000000000e+01       4.000000000000e-01       0.000000000000e+00
      0.000000000000e+00       6.000000000000e-01       0.000000000000e+00
      4.000000000000e+00       6.000000000000e-01       0.000000000000e+00
      8.000000000000e+00       6.000000000000e-01       0.000000000000e+00
      1.200000000000e+01       6.000000000000e-01       0.000000000000e+00
      1.600000000000e+01       6.000000000000e-01       0.000000000000e+00
      2.000000000000e+01       6.000000000000e-01       0.000000000000e+00
      0.000000000000e+00       8.000000000000e-01       0.000000000000e+00
      4.000000000000e+00       8.000000000000e-01       0.000000000000e+00
      8.000000000000e+00       8.000000000000e-01       0.000000000000e+00
      1.200000000000e+01       8.000000000000e-01       0.000000000000e+00
      1.600000000000e+01       8.000000000000e-01       0.000000000000e+00
      2.000000000000e+01       8.000000000000e-01       0.000000000000e+00
      0.000000000000e+00       1.000000000000e+00       0.000000000000e+00
      4.000000000000e+00       1.000000000000e+00       0.000000000000e+00
      8.000000000000e+00       1.000000000000e+00       0.000000000000e+00
      1.200000000000e+01       1.000000000000e+00       0.000000000000e+00
      1.600000000000e+01       1.000000000000e+00       0.000000000000e+00
      2.000000000000e+01       1.000000000000e+00       0.000000000000e+00
      0.000000000000e+00       1.000000000000e+00       0.000000000000e+00
      4.000000000000e+00       1.000000000000e+00       0.000000000000e+00
      8.000000000000e+00       1.000000000000e+00       0.000000000000e+00
      1.200000000000e+01       1.000000000000e+00       0.000000000000e+00
      1.600000000000e+01       1.000000000000e+00       0.000000000000e+00
      2.000000000000e+01       1.000000000000e+00       0.000000000000e+00
      0.000000000000e+00       1.200000000000e+00       0.000000000000e+00
      4.000000000000e+00       1.200000000000e+00       0.000000000000e+00
      8.000000000000e+00       1.200000000000e+00       0.000000000000e+00
      1.200000000000e+01       1.200000000000e+00       0.000000000000e+00
      1.600000000000e+01       1.200000000000e+00       0.000000000000e+00
      2.000000000000e+01       1.200000000000e+00       0.000000000000e+00
      0.000000000000e+00       1.400000000000e+00       0.000000000000e+00
      4.000000000000e+00       1.400000000000e+00       0.000000000000e+00
      8.000000000000e+00       1.400000000000e+00       0.000000000000e+00
      1.200000000000e+01       1.400000000000e+00       0.000000000000e+00
      1.600000000000e+01       1.400000000000e+00       0.000000000000e+00
      2.000000000000e+01       1.400000000000e+00       0.000000000000e+00
      0.000000000000e+00       1.600000000000e+00       0.000000000000e+00
      4.000000000000e+00       1.600000000000e+00       0.000000000000e+00
      8.000000000000e+00       1.600000000000e+00       0.000000000000e+00
      1.200000000000e+01       1.600000000000e+00       0.000000000000e+00
      1.600000000000e+01       1.600000000000e+00       0.000000000000e+00
      2.000000000000e+01       1.600000000000e+00       0.000000000000e+00
      0.000000000000e+00       1.800000000000e+00       0.000000000000e+00
      4.000000000000e+00       1.800000000000e+00       0.000000000000e+00
      8.000000000000e+00       1.800000000000e+00       0.000000000000e+00
      1.200000000000e+01       1.800000000000e+00       0.000000000000e+00
      1.600000000000e+01       1.800000000000e+00       0.000000000000e+00
      2.000000000000e+01       1.800000000000e+00       0.000000000000e+00
      0.000000000000e+00       2.000000000000e+00       0.000000000000e+00
      4.000000000000e+00       2.000000000000e+00       0.000000000000e+00
      8.000000000000e+00       2.000000000000e+00       0.000000000000e+00
      1.200000000000e+01       2.000000000000e+00       0.000000000000e+00
      1.600000000000e+01       2.000000000000e+00       0.000000000000e+00
      2.000000000000e+01       2.000000000000e+00       0.000000000000e+00
CELLS 50 250
4         0        1        7        6
4         1        2        8        7
4         2        3        9        8
4         3        4       10        9
4         4        5       11       10
4         6        7       13       12
4         7        8       14       13
4         8        9       15       14
4         9       10       16       15
4        10       11       17       16
4        12       13       19       18
4        13       14       20       19
4        14       15       21       20
4        15       16       22       21
4        16       17       23       22
4        18       19       25       24
4        19       20       26       25
4        20       21       27       26
4        21       22       28       27
4        22       23       29       28
4        24       25       31       30
4        25       26       32       31
4        26       27       33       32
4        27       28       34       33
4        28       29       35       34
4        36       37       43       42
4        37       38       44       43
4        38       39       45       44
4        39       40       46       45
4        40       41       47       46
4        42       43       49       48
4        43       44       50       49
4        44       45       51       50
4        45       46       52       51
4        46       47       53       52
4        48       49       55       54
4        49       50       56       55
4        50       51       57       56
4        51       52       58       57
4        52       53       59       58
4        54       55       61       60
4        55       56       62       61
4        56       57       63       62
4        57       58       64       63
4        58       59       65       64
4        60       61       67       66
4        61       62       68       67
4        62       63       69       68
4        63       64       70       69
4        64       65       71       70
CELL_TYPES 50
9
9
9
9
9
9
9
9
9
9
9
9
9
9
9
9
9
9
9
9
9
9
9
9
9
9
9
9
9
9
9
9
9
9
9
9
9
9
9
9
9
9
9
9
9
9
9
9
9
9
POINT_DATA 72
VECTORS DSPL double
      0.000000000000e+00       0.000000000000e+00       0.000000000000e+00
      1.998189367865e-01      -2.234017186241e-03       0.000000000000e+00
      4.000963749970e-01      -2.424197655580e-03       0.000000000000e+00
      5.999036250030e-01      -2.424197655585e-03       0.000000000000e+00
      8.001810632135e-01      -2.234017186256e-03       0.000000000000e+00
      1.000000000000e+00      -1.869099780050e-14       0.000000000000e+00
      0.000000000000e+00      -4.249487999001e-03       0.000000000000e+00
      1.998834596251e-01      -6.530497803549e-03       0.000000000000e+00
      4.000812424851e-01      -6.707903410031e-03       0.000000000000e+00
      5.999187575149e-01      -6.707903410036e-03       0.000000000000e+00
      8.001165403749e-01      -6.530497803563e-03       0.000000000000e+00
      1.000000000000e+00      -4.249487999020e-03       0.000000000000e+00
      0.000000000000e+00      -8.488247857000e-03       0.000000000000e+00
      1.999447152114e-01      -1.082853553391e-02       0.000000000000e+00
      4.000704105401e-01      -1.099061074909e-02       0.000000000000e+00
      5.999295894599e-01      -1.099061074909e-02       0.000000000000e+00
      8.000552847886e-01      -1.082853553392e-02       0.000000000000e+00
      1.000000000000e+00      -8.488247857018e-03       0.000000000000e+00
      0.000000000000e+00      -1.271430117686e-02       0.000000000000e+00
      2.000046305132e-01      -1.512873595156e-02       0.000000000000e+00
      4.000616336382e-01      -1.527214310835e-02       0.000000000000e+00
      5.999383663618e-01      -1.527214310836e-02       0.000000000000e+00
      7.999953694868e-01      -1.512873595158e-02       0.000000000000e+00
      1.000000000000e+00      -1.271430117688e-02       0.000000000000e+00
      0.000000000000e+00      -1.692614065727e-02       0.000000000000e+00
      2.000651155734e-01      -1.943147489133e-02       0.000000000000e+00
      4.000526951316e-01      -1.955239116100e-02       0.000000000000e+00
      5.999473048684e-01      -1.955239116101e-02       0.000000000000e+00
      7.999348844266e-01      -1.943147489134e-02       0.000000000000e+00
      1.000000000000e+00      -1.692614065728e-02       0.000000000000e+00
      0.000000000000e+00      -2.112270483702e-02       0.000000000000e+00
      2.001281324825e-01      -2.373690259618e-02       0.000000000000e+00
      4.000413010059e-01      -2.383131189971e-02       0.000000000000e+00
      5.999586989941e-01      -2.383131189972e-02       0.000000000000e+00
      7.998718675175e-01      -2.373690259619e-02       0.000000000000e+00
      1.000000000000e+00      -2.112270483703e-02       0.000000000000e+00
      0.000000000000e+00      -2.112270483702e-02       0.000000000000e+00
      2.001281324825e-01      -2.373690259618e-02       0.000000000000e+00
      4.000413010059e-01      -2.383131189971e-02       0.000000000000e+00
      5.999586989941e-01      -2.383131189972e-02       0.000000000000e+00
      7.998718675175e-01      -2.373690259619e-02       0.000000000000e+00
      1.000000000000e+00      -2.112270483703e-02       0.000000000000e+00
      0.000000000000e+00      -2.530309975617e-02       0.000000000000e+00
      2.001956421705e-01      -2.804483483417e-02       0.000000000000e+00
      4.000250857114e-01      -2.810896239688e-02       0.000000000000e+00
      5.999749142886e-01      -2.810896239689e-02       0.000000000000e+00
      7.998043578295e-01      -2.804483483419e-02       0.000000000000e+00
      1.000000000000e+00      -2.530309975619e-02       0.000000000000e+00
      0.000000000000e+00      -2.946903819598e-02       0.000000000000e+00
      2.002707222382e-01      -3.235573468978e-02       0.000000000000e+00
      4.000006635096e-01      -3.238520244765e-02       0.000000000000e+00
      5.999993364904e-01      -3.238520244765e-02       0.000000000000e+00
      7.997292777618e-01      -3.235573468980e-02       0.000000000000e+00
      1.000000000000e+00      -2.946903819600e-02       0.000000000000e+00
      2.981799049033e-03      -3.360244415631e-02       0.000000000000e+00
      1.998547143813e-01      -3.666005082269e-02       0.000000000000e+00
      4.002382731403e-01      -3.666289943453e-02       0.000000000000e+00
      5.997617268597e-01      -3.666289943453e-02       0.000000000000e+00
      8.001452856187e-01      -3.666005082271e-02       0.000000000000e+00
      9.970182009510e-01      -3.360244415632e-02       0.000000000000e+00
      1.235893379887e-02      -3.706272088874e-02       0.000000000000e+00
      1.985517284576e-01      -4.103518376019e-02       0.000000000000e+00
      4.009459893618e-01      -4.092442574469e-02       0.000000000000e+00
      5.990540106382e-01      -4.092442574470e-02       0.000000000000e+00
      8.014482715424e-01      -4.103518376020e-02       0.000000000000e+00
      9.876410662011e-01      -3.706272088876e-02       0.000000000000e+00
      1.819680256303e-02      -4.003764498233e-02       0.000000000000e+00
      1.978420091191e-01      -4.541282652795e-02       0.000000000000e+00
      4.013277734526e-01      -4.518673499240e-02       0.000000000000e+00
      5.986722265474e-01      -4.518673499240e-02       0.000000000000e+00
      8.021579908809e-01      -4.541282652797e-02       0.000000000000e+00
      9.818031974370e-01      -4.003764498235e-02       0.000000000000e+00
CELL_DATA 50
SCALARS eps11 double
LOOKUP_TABLE default
      4.996288795334e-02
      5.005920082795e-02
      4.995582243743e-02
      5.005920082795e-02
      4.996288795334e-02
      4.997856958818e-02
      5.004032125365e-02
      4.996221831634e-02
      5.004032125365e-02
      4.997856958818e-02
      4.999367632714e-02
      5.002280935466e-02
      4.996702863640e-02
      5.002280935466e-02
      4.999367632714e-02
      5.000868640932e-02
      5.000563126091e-02
      4.997136465954e-02
      5.000563126091e-02
      5.000868640932e-02
      5.002408236478e-02
      4.998774289586e-02
      4.997634947873e-02
      4.998774289586e-02
      5.002408236478e-02
      5.004036528631e-02
      4.996805183818e-02
      4.998316575101e-02
      4.996805183818e-02
      5.004036528631e-02
      5.005808666390e-02
      4.994535515838e-02
      4.999311635544e-02
      4.994535515838e-02
      5.005808666390e-02
      4.978786720739e-02
      4.998237545708e-02
      4.996254816289e-02
      4.998237545708e-02
      4.978786720739e-02
      4.804173097809e-02
      5.032249431055e-02
      4.972082759838e-02
      5.032249431055e-02
      4.804173097809e-02
      4.539904406550e-02
      5.079803624855e-02
      4.938750506163e-02
      5.079803624855e-02
      4.539904406550e-02
SCALARS eps12 double
LOOKUP_TABLE default
     -9.554870565278e-05
     -7.058096391337e-06
     -2.442165393524e-16
      7.058096391166e-06
      9.554870565272e-05
     -1.174954739469e-04
      2.717386797786e-06
     -1.713759410532e-17
     -2.717386797994e-06
      1.174954739468e-04
     -1.325873645470e-04
      8.856501712917e-06
     -1.014597240045e-16
     -8.856501712848e-06
      1.325873645470e-04
     -1.411927583902e-04
      1.149610734383e-05
      1.259178003565e-16
     -1.149610734378e-05
      1.411927583901e-04
     -1.432466591278e-04
      1.052888896926e-05
     -1.555787765869e-17
     -1.052888896943e-05
      1.432466591276e-04
     -1.387427623433e-04
      5.781027259528e-06
      2.193815333389e-17
     -5.781027259344e-06
      1.387427623430e-04
     -1.232134614372e-04
     -4.399443041367e-06
      2.470371590667e-17
      4.399443041303e-06
      1.232134614371e-04
      6.776588262945e-04
      2.455595571566e-04
     -5.064198233397e-17
     -2.455595571566e-04
     -6.776588262946e-04
      2.953025716284e-03
      6.881725815556e-04
      8.405954968552e-17
     -6.881725815557e-04
     -2.953025716284e-03
      1.865103548747e-03
      3.860852719917e-04
     -1.071666084866e-16
     -3.860852719919e-04
     -1.865103548747e-03
SCALARS eps21 double
LOOKUP_TABLE default
     -9.554870565278e-05
     -7.058096391337e-06
     -2.442165393524e-16
      7.058096391166e-06
      9.554870565272e-05
     -1.174954739469e-04
      2.717386797786e-06
     -1.713759410532e-17
     -2.717386797994e-06
      1.174954739468e-04
     -1.325873645470e-04
      8.856501712917e-06
     -1.014597240045e-16
     -8.856501712848e-06
      1.325873645470e-04
     -1.411927583902e-04
      1.149610734383e-05
      1.259178003565e-16
     -1.149610734378e-05
      1.411927583901e-04
     -1.432466591278e-04
      1.052888896926e-05
     -1.555787765869e-17
     -1.052888896943e-05
      1.432466591276e-04
     -1.387427623433e-04
      5.781027259528e-06
      2.193815333389e-17
     -5.781027259344e-06
      1.387427623430e-04
     -1.232134614372e-04
     -4.399443041367e-06
      2.470371590667e-17
      4.399443041303e-06
      1.232134614371e-04
      6.776588262945e-04
      2.455595571566e-04
     -5.064198233397e-17
     -2.455595571566e-04
     -6.776588262946e-04
      2.953025716284e-03
      6.881725815556e-04
      8.405954968552e-17
     -6.881725815557e-04
     -2.953025716284e-03
      1.865103548747e-03
      3.860852719917e-04
     -1.071666084866e-16
     -3.860852719919e-04
     -1.865103548747e-03
SCALARS eps22 double
LOOKUP_TABLE default
     -2.141931445579e-02
     -2.144587924868e-02
     -2.141246973392e-02
     -2.144587924868e-02
     -2.141931445579e-02
     -2.143420290265e-02
     -2.142182729482e-02
     -2.143079674792e-02
     -2.142182729482e-02
     -2.143420290265e-02
     -2.144910787000e-02
     -2.139820437958e-02
     -2.144823264371e-02
     -2.139820437958e-02
     -2.144910787000e-02
     -2.146448631762e-02
     -2.137391916926e-02
     -2.146604616911e-02
     -2.137391916926e-02
     -2.146448631762e-02
     -2.148081191574e-02
     -2.134784764735e-02
     -2.148553801668e-02
     -2.134784764735e-02
     -2.148081191574e-02
     -2.149604223002e-02
     -2.132024838384e-02
     -2.150672615588e-02
     -2.132024838384e-02
     -2.149604223002e-02
     -2.153080923506e-02
     -2.127882061995e-02
     -2.154134622911e-02
     -2.127882061995e-02
     -2.153080923506e-02
     -2.138039157194e-02
     -2.133355422615e-02
     -2.148778088603e-02
     -2.133355422615e-02
     -2.138039157194e-02
     -2.070458819869e-02
     -2.133263645560e-02
     -2.147197102493e-02
     -2.133263645560e-02
     -2.070458819869e-02
     -1.961102058654e-02
     -2.163532010073e-02
     -2.117999490975e-02
     -2.163532010073e-02
     -1.961102058654e-02
SCALARS sig11 double
LOOKUP_TABLE default
      1.152909176620e+04
      1.155310024816e+04
      1.152792366359e+04
      1.155310024816e+04
      1.152909176620e+04
      1.153172105114e+04
      1.155067712445e+04
      1.152751134112e+04
      1.155067712445e+04
      1.153172105114e+04
      1.153418581592e+04
      1.154858865235e+04
      1.152675875576e+04
      1.154858865235e+04
      1.153418581592e+04
      1.153656589262e+04
      1.154667478402e+04
      1.152582633904e+04
      1.154667478402e+04
      1.153656589262e+04
      1.153894030179e+04
      1.154477654598e+04
      1.152487399677e+04
      1.154477654598e+04
      1.153894030179e+04
      1.154169814730e+04
      1.154255379237e+04
      1.152423387996e+04
      1.154255379237e+04
      1.154169814730e+04
      1.154249568805e+04
      1.154115674851e+04
      1.152285248426e+04
      1.154115674851e+04
      1.154249568805e+04
      1.148433040472e+04
      1.154499091528e+04
      1.152070073870e+04
      1.154499091528e+04
      1.148433040472e+04
      1.107258730243e+04
      1.164125109029e+04
      1.145428361998e+04
      1.164125109029e+04
      1.107258730243e+04
      1.045800996284e+04
      1.173901185037e+04
      1.139542993220e+04
      1.173901185037e+04
      1.045800996284e+04
SCALARS sig12 double
LOOKUP_TABLE default
     -1.543479091314e+01
     -1.140154032447e+00
     -3.945010984552e-11
      1.140154032419e+00
      1.543479091313e+01
     -1.898003809911e+01
      4.389624827193e-01
     -2.768341111903e-12
     -4.389624827528e-01
      1.898003809909e+01
     -2.141795888836e+01
      1.430665661317e+00
     -1.638966740103e-11
     -1.430665661306e+00
      2.141795888836e+01
     -2.280806097073e+01
      1.857063494004e+00
      2.034039603416e-11
     -1.857063493995e+00
      2.280806097070e+01
     -2.313984493603e+01
      1.700820525803e+00
     -2.511879593214e-12
     -1.700820525831e+00
      2.313984493599e+01
     -2.241229237853e+01
      9.338582496160e-01
      3.543276783091e-12
     -9.338582495864e-01
      2.241229237849e+01
     -1.990371300140e+01
     -7.106792605286e-01
      3.989031327478e-12
      7.106792605182e-01
      1.990371300138e+01
      1.094679642476e+02
      3.966731307914e+01
     -8.182898803000e-12
     -3.966731307915e+01
     -1.094679642476e+02
      4.770272310920e+02
      1.111663400974e+02
      1.358912982141e-11
     -1.111663400975e+02
     -4.770272310920e+02
      3.012859578746e+02
      6.236762086020e+01
     -1.731059739996e-11
     -6.236762086023e+01
     -3.012859578745e+02
SCALARS sig21 double
LOOKUP_TABLE default
     -1.543479091314e+01
     -1.140154032447e+00
     -3.945010984552e-11
      1.140154032419e+00
      1.543479091313e+01
     -1.898003809911e+01
      4.389624827193e-01
     -2.768341111903e-12
     -4.389624827528e-01
      1.898003809909e+01
     -2.141795888836e+01
      1.430665661317e+00
     -1.638966740103e-11
     -1.430665661306e+00
      2.141795888836e+01
     -2.280806097073e+01
      1.857063494004e+00
      2.034039603416e-11
     -1.857063493995e+00
      2.280806097070e+01
     -2.313984493603e+01
      1.700820525803e+00
     -2.511879593214e-12
     -1.700820525831e+00
      2.313984493599e+01
     -2.241229237853e+01
      9.338582496160e-01
      3.543276783091e-12
     -9.338582495864e-01
      2.241229237849e+01
     -1.990371300140e+01
     -7.106792605286e-01
      3.989031327478e-12
      7.106792605182e-01
      1.990371300138e+01
      1.094679642476e+02
      3.966731307914e+01
     -8.182898803000e-12
     -3.966731307915e+01
     -1.094679642476e+02
      4.770272310920e+02
      1.111663400974e+02
      1.358912982141e-11
     -1.111663400975e+02
     -4.770272310920e+02
      3.012859578746e+02
      6.236762086020e+01
     -1.731059739996e-11
     -6.236762086023e+01
     -3.012859578745e+02
SCALARS sig22 double
LOOKUP_TABLE default
     -1.879392193445e+00
      2.279620393920e+00
     -8.004564009525e-01
      2.279620393918e+00
     -1.879392193443e+00
     -4.188351220881e+00
      6.791589696158e+00
     -5.206476950549e+00
      6.791589696154e+00
     -4.188351220881e+00
     -6.571631307658e+00
      1.134797220349e+01
     -9.552681791659e+00
      1.134797220349e+01
     -6.571631307658e+00
     -9.100470965924e+00
      1.613202222400e+01
     -1.406310251614e+01
      1.613202222400e+01
     -9.100470965925e+00
     -1.185031275628e+01
      2.133499669081e+01
     -1.896936786905e+01
      2.133499669081e+01
     -1.185031275629e+01
     -1.418306687481e+01
      2.675144880852e+01
     -2.413327423132e+01
      2.675144880852e+01
     -1.418306687481e+01
     -2.186441870789e+01
      3.571296893198e+01
     -3.271454862858e+01
      3.571296893197e+01
     -2.186441870789e+01
     -1.208062886481e+01
      2.472535106176e+01
     -2.127549227700e+01
      2.472535106176e+01
     -1.208062886481e+01
     -3.258733382119e+01
      6.619150498401e+01
     -4.609154224303e+01
      6.619150498402e+01
     -3.258733382118e+01
     -4.361586556650e+01
      3.823890163828e+01
     -3.935447788647e+00
      3.823890163827e+01
     -4.361586556649e+01
