# vtk DataFile Version 3.0
truss_top_growth_BCTipp_02.vtk
ASCII
DATASET UNSTRUCTURED_GRID
FIELD FieldData 2
TIME 1 1 double
2.000000e-01
CYCLE 1 1 int
2
POINTS 72 double
      0.000000000000e+00       0.000000000000e+00       0.000000000000e+00
      4.000000000000e+00       0.000000000000e+00       0.000000000000e+00
      8.000000000000e+00       0.000000000000e+00       0.000000000000e+00
      1.200000000000e+01       0.000000000000e+00       0.000000000000e+00
      1.600000000000e+01       0.000000000000e+00       0.000000000000e+00
      2.000000000000e+01       0.000000000000e+00       0.000000000000e+00
      0.000000000000e+00       2.000000000000e-01       0.000000000000e+00
      4.000000000000e+00       2.000000000000e-01       0.000000000000e+00
      8.000000000000e+00       2.000000000000e-01       0.000000000000e+00
      1.200000000000e+01       2.000000000000e-01       0.000000000000e+00
      1.600000000000e+01       2.000000000000e-01       0.000000000000e+00
      2.000000000000e+01       2.000000000000e-01       0.000000000000e+00
      0.000000000000e+00       4.000000000000e-01       0.000000000000e+00
      4.000000000000e+00       4.000000000000e-01       0.000000000000e+00
      8.000000000000e+00       4.000000000000e-01       0.000000000000e+00
      1.200000000000e+01       4.000000000000e-01       0.000000000000e+00
      1.600000000000e+01       4.000000000000e-01       0.000000000000e+00
      2.000000000000e+01       4.000000000000e-01       0.000000000000e+00
      0.000000000000e+00       6.000000000000e-01       0.000000000000e+00
      4.000000000000e+00       6.000000000000e-01       0.000000000000e+00
      8.000000000000e+00       6.000000000000e-01       0.000000000000e+00
      1.200000000000e+01       6.000000000000e-01       0.000000000000e+00
      1.600000000000e+01       6.000000000000e-01       0.000000000000e+00
      2.000000000000e+01       6.000000000000e-01       0.000000000000e+00
      0.000000000000e+00       8.000000000000e-01       0.000000000000e+00
      4.000000000000e+00       8.000000000000e-01       0.000000000000e+00
      8.000000000000e+00       8.000000000000e-01       0.000000000000e+00
      1.200000000000e+01       8.000000000000e-01       0.000000000000e+00
      1.600000000000e+01       8.000000000000e-01       0.000000000000e+00
      2.000000000000e+01       8.000000000000e-01       0.000000000000e+00
      0.000000000000e+00       1.000000000000e+00       0.000000000000e+00
      4.000000000000e+00       1.000000000000e+00       0.000000000000e+00
      8.000000000000e+00       1.000000000000e+00       0.000000000000e+00
      1.200000000000e+01       1.000000000000e+00       0.000000000000e+00
      1.600000000000e+01       1.000000000000e+00       0.000000000000e+00
      2.000000000000e+01       1.000000000000e+00       0.000000000000e+00
      0.000000000000e+00       1.000000000000e+00       0.000000000000e+00
      4.000000000000e+00       1.000000000000e+00       0.000000000000e+00
      8.000000000000e+00       1.000000000000e+00       0.000000000000e+00
      1.200000000000e+01       1.000000000000e+00       0.000000000000e+00
      1.600000000000e+01       1.000000000000e+00       0.000000000000e+00
      2.000000000000e+01       1.000000000000e+00       0.000000000000e+00
      0.000000000000e+00       1.200000000000e+00       0.000000000000e+00
      4.000000000000e+00       1.200000000000e+00       0.000000000000e+00
      8.000000000000e+00       1.200000000000e+00       0.000000000000e+00
      1.200000000000e+01       1.200000000000e+00       0.000000000000e+00
      1.600000000000e+01       1.200000000000e+00       0.000000000000e+00
      2.000000000000e+01       1.200000000000e+00       0.000000000000e+00
      0.000000000000e+00       1.400000000000e+00       0.000000000000e+00
      4.000000000000e+00       1.400000000000e+00       0.000000000000e+00
      8.000000000000e+00       1.400000000000e+00       0.000000000000e+00
      1.200000000000e+01       1.400000000000e+00       0.000000000000e+00
      1.600000000000e+01       1.400000000000e+00       0.000000000000e+00
      2.000000000000e+01       1.400000000000e+00       0.000000000000e+00
      0.000000000000e+00       1.600000000000e+00       0.000000000000e+00
      4.000000000000e+00       1.600000000000e+00       0.000000000000e+00
      8.000000000000e+00       1.600000000000e+00       0.000000000000e+00
      1.200000000000e+01       1.600000000000e+00       0.000000000000e+00
      1.600000000000e+01       1.600000000000e+00       0.000000000000e+00
      2.000000000000e+01       1.600000000000e+00       0.000000000000e+00
      0.000000000000e+00       1.800000000000e+00       0.000000000000e+00
      4.000000000000e+00       1.800000000000e+00       0.000000000000e+00
      8.000000000000e+00       1.800000000000e+00       0.000000000000e+00
      1.200000000000e+01       1.800000000000e+00       0.000000000000e+00
      1.600000000000e+01       1.800000000000e+00       0.000000000000e+00
      2.000000000000e+01       1.800000000000e+00       0.000000000000e+00
      0.000000000000e+00       2.000000000000e+00       0.000000000000e+00
      4.000000000000e+00       2.000000000000e+00       0.000000000000e+00
      8.000000000000e+00       2.000000000000e+00       0.000000000000e+00
      1.200000000000e+01       2.000000000000e+00       0.000000000000e+00
      1.600000000000e+01       2.000000000000e+00       0.000000000000e+00
      2.000000000000e+01       2.000000000000e+00       0.000000000000e+00
CELLS 50 250
4         0        1        7        6
4         1        2        8        7
4         2        3        9        8
4         3        4       10        9
4         4        5       11       10
4         6        7       13       12
4         7        8       14       13
4         8        9       15       14
4         9       10       16       15
4        10       11       17       16
4        12       13       19       18
4        13       14       20       19
4        14       15       21       20
4        15       16       22       21
4        16       17       23       22
4        18       19       25       24
4        19       20       26       25
4        20       21       27       26
4        21       22       28       27
4        22       23       29       28
4        24       25       31       30
4        25       26       32       31
4        26       27       33       32
4        27       28       34       33
4        28       29       35       34
4        36       37       43       42
4        37       38       44       43
4        38       39       45       44
4        39       40       46       45
4        40       41       47       46
4        42       43       49       48
4        43       44       50       49
4        44       45       51       50
4        45       46       52       51
4        46       47       53       52
4        48       49       55       54
4        49       50       56       55
4        50       51       57       56
4        51       52       58       57
4        52       53       59       58
4        54       55       61       60
4        55       56       62       61
4        56       57       63       62
4        57       58       64       63
4        58       59       65       64
4        60       61       67       66
4        61       62       68       67
4        62       63       69       68
4        63       64       70       69
4        64       65       71       70
CELL_TYPES 50
9
9
9
9
9
9
9
9
9
9
9
9
9
9
9
9
9
9
9
9
9
9
9
9
9
9
9
9
9
9
9
9
9
9
9
9
9
9
9
9
9
9
9
9
9
9
9
9
9
9
POINT_DATA 72
VECTORS DSPL double
      0.000000000000e+00       0.000000000000e+00       0.000000000000e+00
      1.991329964238e-01      -1.102898733533e-02       0.000000000000e+00
      4.000987909066e-01      -1.466091316029e-02       0.000000000000e+00
      5.999012090934e-01      -1.466091316040e-02       0.000000000000e+00
      8.008670035761e-01      -1.102898733566e-02       0.000000000000e+00
      1.000000000000e+00      -4.331849151100e-13       0.000000000000e+00
      0.000000000000e+00      -4.174251771239e-03       0.000000000000e+00
      1.995784294060e-01      -1.534356853967e-02       0.000000000000e+00
      4.001097099482e-01      -1.894608393436e-02       0.000000000000e+00
      5.998902900518e-01      -1.894608393447e-02       0.000000000000e+00
      8.004215705940e-01      -1.534356854000e-02       0.000000000000e+00
      1.000000000000e+00      -4.174251771672e-03       0.000000000000e+00
      0.000000000000e+00      -8.333043949482e-03       0.000000000000e+00
      2.000150156465e-01      -1.966009000900e-02       0.000000000000e+00
      4.001295473418e-01      -2.322505217546e-02       0.000000000000e+00
      5.998704526582e-01      -2.322505217557e-02       0.000000000000e+00
      7.999849843534e-01      -1.966009000932e-02       0.000000000000e+00
      1.000000000000e+00      -8.333043949916e-03       0.000000000000e+00
      0.000000000000e+00      -1.247225741629e-02       0.000000000000e+00
      2.004528383874e-01      -2.397969093830e-02       0.000000000000e+00
      4.001490684768e-01      -2.749751300262e-02       0.000000000000e+00
      5.998509315232e-01      -2.749751300274e-02       0.000000000000e+00
      7.995471616126e-01      -2.397969093863e-02       0.000000000000e+00
      1.000000000000e+00      -1.247225741673e-02       0.000000000000e+00
      0.000000000000e+00      -1.659070578561e-02       0.000000000000e+00
      2.009020699588e-01      -2.830233235105e-02       0.000000000000e+00
      4.001589073279e-01      -3.176344935811e-02       0.000000000000e+00
      5.998410926721e-01      -3.176344935823e-02       0.000000000000e+00
      7.990979300412e-01      -2.830233235137e-02       0.000000000000e+00
      1.000000000000e+00      -1.659070578604e-02       0.000000000000e+00
      0.000000000000e+00      -2.069021779500e-02       0.000000000000e+00
      2.013732747862e-01      -3.262675637033e-02       0.000000000000e+00
      4.001491211120e-01      -3.602314562775e-02       0.000000000000e+00
      5.998508788880e-01      -3.602314562787e-02       0.000000000000e+00
      7.986267252138e-01      -3.262675637066e-02       0.000000000000e+00
      1.000000000000e+00      -2.069021779543e-02       0.000000000000e+00
      0.000000000000e+00      -2.069021779500e-02       0.000000000000e+00
      2.013732747862e-01      -3.262675637033e-02       0.000000000000e+00
      4.001491211120e-01      -3.602314562775e-02       0.000000000000e+00
      5.998508788880e-01      -3.602314562787e-02       0.000000000000e+00
      7.986267252138e-01      -3.262675637066e-02       0.000000000000e+00
      1.000000000000e+00      -2.069021779543e-02       0.000000000000e+00
      6.310093598962e-03      -2.471515151171e-02       0.000000000000e+00
      2.008064372002e-01      -3.692174730759e-02       0.000000000000e+00
      4.006953024638e-01      -4.028582609680e-02       0.000000000000e+00
      5.993046975363e-01      -4.028582609691e-02       0.000000000000e+00
      7.991935627999e-01      -3.692174730791e-02       0.000000000000e+00
      9.936899064010e-01      -2.471515151214e-02       0.000000000000e+00
      2.048383453036e-02      -2.688479388937e-02       0.000000000000e+00
      1.999021753449e-01      -4.151630693479e-02       0.000000000000e+00
      4.014694447686e-01      -4.447506912237e-02       0.000000000000e+00
      5.985305552314e-01      -4.447506912249e-02       0.000000000000e+00
      8.000978246551e-01      -4.151630693511e-02       0.000000000000e+00
      9.795161654697e-01      -2.688479388982e-02       0.000000000000e+00
      3.955458359580e-02      -2.779020089504e-02       0.000000000000e+00
      1.987593345906e-01      -4.617268509441e-02       0.000000000000e+00
      4.023742407476e-01      -4.864273160248e-02       0.000000000000e+00
      5.976257592525e-01      -4.864273160260e-02       0.000000000000e+00
      8.012406654094e-01      -4.617268509471e-02       0.000000000000e+00
      9.604454164042e-01      -2.779020089553e-02       0.000000000000e+00
      4.903051344422e-02      -2.911563545835e-02       0.000000000000e+00
      1.986521149555e-01      -5.053671019919e-02       0.000000000000e+00
      4.026694365832e-01      -5.286956793460e-02       0.000000000000e+00
      5.973305634168e-01      -5.286956793473e-02       0.000000000000e+00
      8.013478850446e-01      -5.053671019948e-02       0.000000000000e+00
      9.509694865558e-01      -2.911563545889e-02       0.000000000000e+00
      5.430805814892e-02      -3.033901415970e-02       0.000000000000e+00
      1.988034135853e-01      -5.482371702305e-02       0.000000000000e+00
      4.028084681700e-01      -5.710697335656e-02       0.000000000000e+00
      5.971915318301e-01      -5.710697335669e-02       0.000000000000e+00
      8.011965864148e-01      -5.482371702333e-02       0.000000000000e+00
      9.456919418512e-01      -3.033901416028e-02       0.000000000000e+00
CELL_DATA 50
SCALARS eps11 double
LOOKUP_TABLE default
      4.983921783186e-02
      5.018656240127e-02
      4.994843953374e-02
      5.018656240127e-02
      4.983921783186e-02
      4.994925964267e-02
      5.008055829429e-02
      4.994036412608e-02
      5.008055829429e-02
      4.994925964267e-02
      5.005835122230e-02
      4.997657815676e-02
      4.993014124188e-02
      4.997657815676e-02
      5.005835122230e-02
      5.016901870730e-02
      4.986977929504e-02
      4.992240399532e-02
      4.986977929504e-02
      5.016901870730e-02
      5.028384737679e-02
      4.975517286258e-02
      4.992195952128e-02
      4.975517286258e-02
      5.028384737678e-02
      4.923093510575e-02
      4.988813732849e-02
      4.975007712711e-02
      4.988813732849e-02
      4.923093510574e-02
      4.733381406138e-02
      5.010341073850e-02
      4.951662691698e-02
      5.010341073850e-02
      4.733381406138e-02
      4.194739075981e-02
      5.071099335443e-02
      4.899215270209e-02
      5.071099335443e-02
      4.194739075981e-02
      3.854085476562e-02
      5.095935795217e-02
      4.873520657424e-02
      5.095935795216e-02
      3.854085476562e-02
      3.664135460740e-02
      5.101474598555e-02
      4.862138421738e-02
      5.101474598555e-02
      3.664135460741e-02
SCALARS eps12 double
LOOKUP_TABLE default
     -2.918672885282e-04
     -5.373414214455e-05
     -1.580351721340e-16
      5.373414214453e-05
      2.918672885281e-04
     -3.473995663204e-04
     -3.464831622877e-05
     -1.760685035810e-16
      3.464831622858e-05
      3.473995663199e-04
     -3.648811330488e-04
     -2.912229963925e-05
     -1.300068519093e-16
      2.912229963902e-05
      3.648811330481e-04
     -3.442666760794e-04
     -3.732278448853e-05
      1.115923556360e-16
      3.732278448814e-05
      3.442666760786e-04
     -2.834999840392e-04
     -6.046026806880e-05
     -3.250997154857e-16
      6.046026806847e-05
      2.834999840387e-04
      1.422725437052e-03
      4.711232870795e-04
     -2.668153783851e-16
     -4.711232870795e-04
     -1.422725437052e-03
      6.627413857266e-03
      7.782918783324e-04
     -3.640174912802e-15
     -7.782918783255e-04
     -6.627413857270e-03
      9.447210302525e-03
      9.769194046732e-04
     -4.858919798630e-15
     -9.769194046639e-04
     -9.447210302532e-03
      4.650612936671e-03
      3.491845592304e-04
     -1.940980233798e-15
     -3.491845592266e-04
     -4.650612936675e-03
      1.674122389178e-03
      1.862525846766e-04
     -8.630736336929e-16
     -1.862525846742e-04
     -1.674122389181e-03
SCALARS eps21 double
LOOKUP_TABLE default
     -2.918672885282e-04
     -5.373414214455e-05
     -1.580351721340e-16
      5.373414214453e-05
      2.918672885281e-04
     -3.473995663204e-04
     -3.464831622877e-05
     -1.760685035810e-16
      3.464831622858e-05
      3.473995663199e-04
     -3.648811330488e-04
     -2.912229963925e-05
     -1.300068519093e-16
      2.912229963902e-05
      3.648811330481e-04
     -3.442666760794e-04
     -3.732278448853e-05
      1.115923556360e-16
      3.732278448814e-05
      3.442666760786e-04
     -2.834999840392e-04
     -6.046026806880e-05
     -3.250997154857e-16
      6.046026806847e-05
      2.834999840387e-04
      1.422725437052e-03
      4.711232870795e-04
     -2.668153783851e-16
     -4.711232870795e-04
     -1.422725437052e-03
      6.627413857266e-03
      7.782918783324e-04
     -3.640174912802e-15
     -7.782918783255e-04
     -6.627413857270e-03
      9.447210302525e-03
      9.769194046732e-04
     -4.858919798630e-15
     -9.769194046639e-04
     -9.447210302532e-03
      4.650612936671e-03
      3.491845592304e-04
     -1.940980233798e-15
     -3.491845592266e-04
     -4.650612936675e-03
      1.674122389178e-03
      1.862525846766e-04
     -8.630736336929e-16
     -1.862525846742e-04
     -1.674122389181e-03
SCALARS eps22 double
LOOKUP_TABLE default
     -2.137921974727e-02
     -2.148369252383e-02
     -2.141703260064e-02
     -2.148369252384e-02
     -2.137921974727e-02
     -2.145084219045e-02
     -2.138890163728e-02
     -2.146336948740e-02
     -2.138890163728e-02
     -2.145084219045e-02
     -2.152288534896e-02
     -2.129391133637e-02
     -2.150926377220e-02
     -2.129391133637e-02
     -2.152288534896e-02
     -2.159740119958e-02
     -2.119418276006e-02
     -2.155968922359e-02
     -2.119418276006e-02
     -2.159740119958e-02
     -2.167650760341e-02
     -2.108499965688e-02
     -2.161984262227e-02
     -2.108499965688e-02
     -2.167650760341e-02
     -2.115404812655e-02
     -2.129191509808e-02
     -2.138874037271e-02
     -2.129191509808e-02
     -2.115404812655e-02
     -2.051177950811e-02
     -2.071676034531e-02
     -2.185119757981e-02
     -2.071676034532e-02
     -2.051177950810e-02
     -1.868901882104e-02
     -2.080861805268e-02
     -2.168253288090e-02
     -2.080861805269e-02
     -1.868901882103e-02
     -1.664888476961e-02
     -2.169840075466e-02
     -2.079861052099e-02
     -2.169840075467e-02
     -1.664888476961e-02
     -1.585989364239e-02
     -2.182145872221e-02
     -2.063526450060e-02
     -2.182145872222e-02
     -1.585989364238e-02
SCALARS sig11 double
LOOKUP_TABLE default
      1.149898880232e+04
      1.158452316151e+04
      1.152528376465e+04
      1.158452316151e+04
      1.149898880232e+04
      1.152141944130e+04
      1.156604089637e+04
      1.151738701697e+04
      1.156604089637e+04
      1.152141944130e+04
      1.154353048595e+04
      1.154815495164e+04
      1.150893681713e+04
      1.154815495164e+04
      1.154353048595e+04
      1.156578745077e+04
      1.153004623555e+04
      1.150064031967e+04
      1.153004623555e+04
      1.156578745077e+04
      1.158866458725e+04
      1.151087583157e+04
      1.149322685466e+04
      1.151087583157e+04
      1.158866458725e+04
      1.135431236264e+04
      1.152339526175e+04
      1.147263595039e+04
      1.152339526175e+04
      1.135431236264e+04
      1.089582415002e+04
      1.165393360924e+04
      1.135061290244e+04
      1.165393360924e+04
      1.089582415002e+04
      9.593958184551e+03
      1.181456362651e+04
      1.122278245329e+04
      1.181456362650e+04
      9.593958184552e+03
      8.878126750116e+03
      1.177697379120e+04
      1.125723635306e+04
      1.177697379120e+04
      8.878126750118e+03
      8.436741976572e+03
      1.177772261611e+04
      1.124484964695e+04
      1.177772261611e+04
      8.436741976574e+03
SCALARS sig12 double
LOOKUP_TABLE default
     -4.714779276224e+01
     -8.680130654119e+00
     -2.552735800521e-11
      8.680130654117e+00
      4.714779276222e+01
     -5.611839148253e+01
     -5.597035698494e+00
     -2.844335877938e-11
      5.597035698463e+00
      5.611839148244e+01
     -5.894233687712e+01
     -4.704371480186e+00
     -2.099986851078e-11
      4.704371480150e+00
      5.894233687700e+01
     -5.561230921282e+01
     -6.029065186609e+00
      1.803002191991e-11
      6.029065186546e+00
      5.561230921270e+01
     -4.579615126786e+01
     -9.766658688037e+00
     -5.251354906477e-11
      9.766658687983e+00
      4.579615126779e+01
      2.298248782930e+02
      7.610453098977e+01
     -4.309885781595e-11
     -7.610453098976e+01
     -2.298248782930e+02
      1.070582238481e+03
      1.257240726537e+02
     -5.880362863309e-10
     -1.257240726526e+02
     -1.070582238482e+03
      1.526087818100e+03
      1.578100576780e+02
     -7.849099148416e-10
     -1.578100576765e+02
     -1.526087818101e+03
      7.512528590007e+02
      5.640673649106e+01
     -3.135436354995e-10
     -5.640673649045e+01
     -7.512528590013e+02
      2.704351551749e+02
      3.008695598621e+01
     -1.394204196536e-10
     -3.008695598583e+01
     -2.704351551754e+02
SCALARS sig21 double
LOOKUP_TABLE default
     -4.714779276224e+01
     -8.680130654119e+00
     -2.552735800521e-11
      8.680130654117e+00
      4.714779276222e+01
     -5.611839148253e+01
     -5.597035698494e+00
     -2.844335877938e-11
      5.597035698463e+00
      5.611839148244e+01
     -5.894233687712e+01
     -4.704371480186e+00
     -2.099986851078e-11
      4.704371480150e+00
      5.894233687700e+01
     -5.561230921282e+01
     -6.029065186609e+00
      1.803002191991e-11
      6.029065186546e+00
      5.561230921270e+01
     -4.579615126786e+01
     -9.766658688037e+00
     -5.251354906477e-11
      9.766658687983e+00
      4.579615126779e+01
      2.298248782930e+02
      7.610453098977e+01
     -4.309885781595e-11
     -7.610453098976e+01
     -2.298248782930e+02
      1.070582238481e+03
      1.257240726537e+02
     -5.880362863309e-10
     -1.257240726526e+02
     -1.070582238482e+03
      1.526087818100e+03
      1.578100576780e+02
     -7.849099148416e-10
     -1.578100576765e+02
     -1.526087818101e+03
      7.512528590007e+02
      5.640673649106e+01
     -3.135436354995e-10
     -5.640673649045e+01
     -7.512528590013e+02
      2.704351551749e+02
      3.008695598621e+01
     -1.394204196536e-10
     -3.008695598583e+01
     -2.704351551754e+02
SCALARS sig22 double
LOOKUP_TABLE default
     -5.528037388697e+00
      7.020442839376e+00
     -2.984810901405e+00
      7.020442839391e+00
     -5.528037388681e+00
     -1.244316251475e+01
      2.097429203890e+01
     -1.706225904833e+01
      2.097429203890e+01
     -1.244316251474e+01
     -1.959234479305e+01
      3.522972582694e+01
     -3.127476206781e+01
      3.522972582694e+01
     -1.959234479305e+01
     -2.724961111176e+01
      5.048313434481e+01
     -4.646704646614e+01
      5.048313434482e+01
     -2.724961111176e+01
     -3.570044800738e+01
      6.746334765483e+01
     -6.352579929491e+01
      6.746334765482e+01
     -3.570044800737e+01
     -1.556954411622e+01
      2.507910053316e+01
     -1.901918419358e+01
      2.507910053314e+01
     -1.556954411621e+01
     -6.384865735452e+01
      2.137521264697e+02
     -1.780356701204e+02
      2.137521264682e+02
     -6.384865735319e+01
     -2.011541323564e+02
      2.613956299708e+02
     -1.938975255025e+02
      2.613956299681e+02
     -2.011541323539e+02
     -3.713886711363e+01
      3.995123086840e+01
      2.485051459803e+01
      3.995123086595e+01
     -3.713886711143e+01
     -4.422889454792e+01
      1.187416331717e+01
      5.723716174195e+01
      1.187416331460e+01
     -4.422889454561e+01
