# vtk DataFile Version 3.0
truss_top_growth_BCTipp_01.vtk
ASCII
DATASET UNSTRUCTURED_GRID
FIELD FieldData 2
TIME 1 1 double
0.000000e+00
CYCLE 1 1 int
1
POINTS 72 double
      0.000000000000e+00       0.000000000000e+00       0.000000000000e+00
      4.000000000000e+00       0.000000000000e+00       0.000000000000e+00
      8.000000000000e+00       0.000000000000e+00       0.000000000000e+00
      1.200000000000e+01       0.000000000000e+00       0.000000000000e+00
      1.600000000000e+01       0.000000000000e+00       0.000000000000e+00
      2.000000000000e+01       0.000000000000e+00       0.000000000000e+00
      0.000000000000e+00       2.000000000000e-01       0.000000000000e+00
      4.000000000000e+00       2.000000000000e-01       0.000000000000e+00
      8.000000000000e+00       2.000000000000e-01       0.000000000000e+00
      1.200000000000e+01       2.000000000000e-01       0.000000000000e+00
      1.600000000000e+01       2.000000000000e-01       0.000000000000e+00
      2.000000000000e+01       2.000000000000e-01       0.000000000000e+00
      0.000000000000e+00       4.000000000000e-01       0.000000000000e+00
      4.000000000000e+00       4.000000000000e-01       0.000000000000e+00
      8.000000000000e+00       4.000000000000e-01       0.000000000000e+00
      1.200000000000e+01       4.000000000000e-01       0.000000000000e+00
      1.600000000000e+01       4.000000000000e-01       0.000000000000e+00
      2.000000000000e+01       4.000000000000e-01       0.000000000000e+00
      0.000000000000e+00       6.000000000000e-01       0.000000000000e+00
      4.000000000000e+00       6.000000000000e-01       0.000000000000e+00
      8.000000000000e+00       6.000000000000e-01       0.000000000000e+00
      1.200000000000e+01       6.000000000000e-01       0.000000000000e+00
      1.600000000000e+01       6.000000000000e-01       0.000000000000e+00
      2.000000000000e+01       6.000000000000e-01       0.000000000000e+00
      0.000000000000e+00       8.000000000000e-01       0.000000000000e+00
      4.000000000000e+00       8.000000000000e-01       0.000000000000e+00
      8.000000000000e+00       8.000000000000e-01       0.000000000000e+00
      1.200000000000e+01       8.000000000000e-01       0.000000000000e+00
      1.600000000000e+01       8.000000000000e-01       0.000000000000e+00
      2.000000000000e+01       8.000000000000e-01       0.000000000000e+00
      0.000000000000e+00       1.000000000000e+00       0.000000000000e+00
      4.000000000000e+00       1.000000000000e+00       0.000000000000e+00
      8.000000000000e+00       1.000000000000e+00       0.000000000000e+00
      1.200000000000e+01       1.000000000000e+00       0.000000000000e+00
      1.600000000000e+01       1.000000000000e+00       0.000000000000e+00
      2.000000000000e+01       1.000000000000e+00       0.000000000000e+00
      0.000000000000e+00       1.000000000000e+00       0.000000000000e+00
      4.000000000000e+00       1.000000000000e+00       0.000000000000e+00
      8.000000000000e+00       1.000000000000e+00       0.000000000000e+00
      1.200000000000e+01       1.000000000000e+00       0.000000000000e+00
      1.600000000000e+01       1.000000000000e+00       0.000000000000e+00
      2.000000000000e+01       1.000000000000e+00       0.000000000000e+00
      0.000000000000e+00       1.200000000000e+00       0.000000000000e+00
      4.000000000000e+00       1.200000000000e+00       0.000000000000e+00
      8.000000000000e+00       1.200000000000e+00       0.000000000000e+00
      1.200000000000e+01       1.200000000000e+00       0.000000000000e+00
      1.600000000000e+01       1.200000000000e+00       0.000000000000e+00
      2.000000000000e+01       1.200000000000e+00       0.000000000000e+00
      0.000000000000e+00       1.400000000000e+00       0.000000000000e+00
      4.000000000000e+00       1.400000000000e+00       0.000000000000e+00
      8.000000000000e+00       1.400000000000e+00       0.000000000000e+00
      1.200000000000e+01       1.400000000000e+00       0.000000000000e+00
      1.600000000000e+01       1.400000000000e+00       0.000000000000e+00
      2.000000000000e+01       1.400000000000e+00       0.000000000000e+00
      0.000000000000e+00       1.600000000000e+00       0.000000000000e+00
      4.000000000000e+00       1.600000000000e+00       0.000000000000e+00
      8.000000000000e+00       1.600000000000e+00       0.000000000000e+00
      1.200000000000e+01       1.600000000000e+00       0.000000000000e+00
      1.600000000000e+01       1.600000000000e+00       0.000000000000e+00
      2.000000000000e+01       1.600000000000e+00       0.000000000000e+00
      0.000000000000e+00       1.800000000000e+00       0.000000000000e+00
      4.000000000000e+00       1.800000000000e+00       0.000000000000e+00
      8.000000000000e+00       1.800000000000e+00       0.000000000000e+00
      1.200000000000e+01       1.800000000000e+00       0.000000000000e+00
      1.600000000000e+01       1.800000000000e+00       0.000000000000e+00
      2.000000000000e+01       1.800000000000e+00       0.000000000000e+00
      0.000000000000e+00       2.000000000000e+00       0.000000000000e+00
      4.000000000000e+00       2.000000000000e+00       0.000000000000e+00
      8.000000000000e+00       2.000000000000e+00       0.000000000000e+00
      1.200000000000e+01       2.000000000000e+00       0.000000000000e+00
      1.600000000000e+01       2.000000000000e+00       0.000000000000e+00
      2.000000000000e+01       2.000000000000e+00       0.000000000000e+00
CELLS 50 250
4         0        1        7        6
4         1        2        8        7
4         2        3        9        8
4         3        4       10        9
4         4        5       11       10
4         6        7       13       12
4         7        8       14       13
4         8        9       15       14
4         9       10       16       15
4        10       11       17       16
4        12       13       19       18
4        13       14       20       19
4        14       15       21       20
4        15       16       22       21
4        16       17       23       22
4        18       19       25       24
4        19       20       26       25
4        20       21       27       26
4        21       22       28       27
4        22       23       29       28
4        24       25       31       30
4        25       26       32       31
4        26       27       33       32
4        27       28       34       33
4        28       29       35       34
4        36       37       43       42
4        37       38       44       43
4        38       39       45       44
4        39       40       46       45
4        40       41       47       46
4        42       43       49       48
4        43       44       50       49
4        44       45       51       50
4        45       46       52       51
4        46       47       53       52
4        48       49       55       54
4        49       50       56       55
4        50       51       57       56
4        51       52       58       57
4        52       53       59       58
4        54       55       61       60
4        55       56       62       61
4        56       57       63       62
4        57       58       64       63
4        58       59       65       64
4        60       61       67       66
4        61       62       68       67
4        62       63       69       68
4        63       64       70       69
4        64       65       71       70
CELL_TYPES 50
9
9
9
9
9
9
9
9
9
9
9
9
9
9
9
9
9
9
9
9
9
9
9
9
9
9
9
9
9
9
9
9
9
9
9
9
9
9
9
9
9
9
9
9
9
9
9
9
9
9
POINT_DATA 72
VECTORS DSPL double
      0.000000000000e+00       0.000000000000e+00       0.000000000000e+00
      2.000000506206e-01       2.421868720482e-07       0.000000000000e+00
      4.000001019693e-01       9.551493024503e-07       0.000000000000e+00
      6.000001687382e-01       2.204614024101e-06       0.000000000000e+00
      8.000002081737e-01       4.048867791239e-06       0.000000000000e+00
      1.000000000000e+00       5.402484928356e-06       0.000000000000e+00
      0.000000000000e+00      -4.285715151491e-03       0.000000000000e+00
      2.000000266980e-01      -4.285472889933e-03       0.000000000000e+00
      4.000000540974e-01      -4.284760099317e-03       0.000000000000e+00
      6.000000904141e-01      -4.283510811649e-03       0.000000000000e+00
      8.000001099577e-01      -4.281664994429e-03       0.000000000000e+00
      1.000000000000e+00      -4.280304068943e-03       0.000000000000e+00
      0.000000000000e+00      -8.571429756135e-03       0.000000000000e+00
      2.000000027690e-01      -8.571187455695e-03       0.000000000000e+00
      4.000000061940e-01      -8.570474828171e-03       0.000000000000e+00
      6.000000120415e-01      -8.569225439363e-03       0.000000000000e+00
      8.000000127652e-01      -8.567379355666e-03       0.000000000000e+00
      1.000000000000e+00      -8.566014338998e-03       0.000000000000e+00
      0.000000000000e+00      -1.285714381129e-02       0.000000000000e+00
      1.999999788593e-01      -1.285690150977e-02       0.000000000000e+00
      3.999999582298e-01      -1.285618903599e-02       0.000000000000e+00
      5.999999337502e-01      -1.285493927685e-02       0.000000000000e+00
      7.999999156264e-01      -1.285309424487e-02       0.000000000000e+00
      1.000000000000e+00      -1.285172819752e-02       0.000000000000e+00
      0.000000000000e+00      -1.714285728562e-02       0.000000000000e+00
      1.999999549958e-01      -1.714261505581e-02       0.000000000000e+00
      3.999999101731e-01      -1.714190272273e-02       0.000000000000e+00
      5.999998556717e-01      -1.714065232778e-02       0.000000000000e+00
      7.999998175714e-01      -1.713880962337e-02       0.000000000000e+00
      1.000000000000e+00      -1.713744577486e-02       0.000000000000e+00
      0.000000000000e+00      -2.142857011447e-02       0.000000000000e+00
      1.999999312100e-01      -2.142832810281e-02       0.000000000000e+00
      3.999998619836e-01      -2.142761588880e-02       0.000000000000e+00
      5.999997779511e-01      -2.142636459318e-02       0.000000000000e+00
      7.999997176162e-01      -2.142452538160e-02       0.000000000000e+00
      1.000000000000e+00      -2.142316747024e-02       0.000000000000e+00
      0.000000000000e+00      -2.142857011447e-02       0.000000000000e+00
      1.999999312100e-01      -2.142832810281e-02       0.000000000000e+00
      3.999998619836e-01      -2.142761588880e-02       0.000000000000e+00
      5.999997779511e-01      -2.142636459318e-02       0.000000000000e+00
      7.999997176162e-01      -2.142452538160e-02       0.000000000000e+00
      1.000000000000e+00      -2.142316747024e-02       0.000000000000e+00
      0.000000000000e+00      -2.559717882679e-02       0.000000000000e+00
      1.998703538871e-01      -2.567362686700e-02       0.000000000000e+00
      4.003556879055e-01      -2.585521239634e-02       0.000000000000e+00
      5.991403743076e-01      -2.538798818449e-02       0.000000000000e+00
      8.015908491169e-01      -2.657744043926e-02       0.000000000000e+00
      9.743141763577e-01      -2.140971934010e-02       0.000000000000e+00
      0.000000000000e+00      -2.989820140041e-02       0.000000000000e+00
      1.998327881395e-01      -2.993293428157e-02       0.000000000000e+00
      4.004854013642e-01      -3.021046981999e-02       0.000000000000e+00
      5.987539762779e-01      -2.949152585817e-02       0.000000000000e+00
      8.021540903038e-01      -3.136112495009e-02       0.000000000000e+00
      9.563918688423e-01      -2.154921242697e-02       0.000000000000e+00
      0.000000000000e+00      -3.424995081750e-02       0.000000000000e+00
      1.998382827207e-01      -3.420657309991e-02       0.000000000000e+00
      4.005029460283e-01      -3.451617478981e-02       0.000000000000e+00
      5.986180321273e-01      -3.369577729281e-02       0.000000000000e+00
      8.022208923451e-01      -3.585740460020e-02       0.000000000000e+00
      9.440910095087e-01      -2.189290313142e-02       0.000000000000e+00
      0.000000000000e+00      -3.861322888175e-02       0.000000000000e+00
      1.998585639521e-01      -3.849154223044e-02       0.000000000000e+00
      4.004755885336e-01      -3.879074412669e-02       0.000000000000e+00
      5.985984960144e-01      -3.796520564281e-02       0.000000000000e+00
      8.021230928197e-01      -4.015463038574e-02       0.000000000000e+00
      9.360957244683e-01      -2.238095395087e-02       0.000000000000e+00
      0.000000000000e+00      -4.297062407558e-02       0.000000000000e+00
      1.998781533072e-01      -4.278359228058e-02       0.000000000000e+00
      4.004412266426e-01      -4.304954455883e-02       0.000000000000e+00
      5.986175391455e-01      -4.226840096391e-02       0.000000000000e+00
      8.020620908471e-01      -4.434368858127e-02       0.000000000000e+00
      9.316119075677e-01      -2.289313005394e-02       0.000000000000e+00
CELL_DATA 50
SCALARS eps11 double
LOOKUP_TABLE default
      5.000000966522e-02
      5.000000984348e-02
      5.000001288773e-02
      5.000000733855e-02
      4.999996026503e-02
      5.000000368324e-02
      5.000000385414e-02
      5.000000526920e-02
      5.000000252259e-02
      4.999998467082e-02
      4.999999770288e-02
      4.999999785167e-02
      4.999999766638e-02
      4.999999783697e-02
      5.000000894210e-02
      4.999999173063e-02
      4.999999182202e-02
      4.999999011924e-02
      4.999999300706e-02
      5.000003332105e-02
      4.999998577375e-02
      4.999998574908e-02
      4.999998267094e-02
      4.999998775462e-02
      5.000005805160e-02
      4.998122068165e-02
      5.006943057711e-02
      4.982910980589e-02
      5.034731831104e-02
      4.637266048844e-02
      4.996162389316e-02
      5.014672609555e-02
      4.962149323490e-02
      5.075284443299e-02
      4.072162033535e-02
      4.995835853732e-02
      5.016664475650e-02
      4.954301277810e-02
      5.088497149458e-02
      3.690709287784e-02
      4.996201504389e-02
      5.016071282988e-02
      4.952797278776e-02
      5.089304114730e-02
      3.440048035893e-02
      4.996720927580e-02
      5.014727341754e-02
      4.953727958934e-02
      5.086910878107e-02
      3.287539134761e-02
SCALARS eps12 double
LOOKUP_TABLE default
      3.750953525241e-11
     -2.851573949095e-10
      7.848620779152e-10
      3.206463844618e-09
      4.473599476064e-09
      9.441484253866e-11
     -4.030204013674e-10
      7.267028837302e-10
      4.040076781659e-09
      7.835184681583e-09
      6.151083485784e-11
     -3.738399010662e-10
      5.884797828219e-10
      4.423684434482e-09
      7.969368199059e-09
     -7.039352645159e-11
     -1.874275547067e-10
      3.537692004971e-10
      4.378144779977e-09
      4.856631662406e-09
     -3.304330637591e-10
      1.875804403401e-10
     -2.093929866534e-11
      3.982390848251e-09
     -1.649731683616e-09
      1.922644359722e-04
     -3.465748447562e-04
      7.280642345861e-04
     -2.018586408160e-03
     -1.455059202346e-02
     -5.795069363918e-06
     -4.839895950538e-05
      1.740004959488e-04
     -1.004410375898e-03
     -1.162933851232e-02
     -7.357593085922e-05
      6.969237343162e-05
     -5.969178167924e-05
     -4.810410791542e-04
     -8.425056932756e-03
     -7.609176364631e-05
      9.293902294153e-05
     -1.182807489484e-04
     -2.215733903427e-04
     -5.071254835881e-03
     -4.932588127412e-05
      6.998086214419e-05
     -8.708352334106e-05
     -9.559463260217e-05
     -1.644113243451e-03
SCALARS eps21 double
LOOKUP_TABLE default
      3.750953525241e-11
     -2.851573949095e-10
      7.848620779152e-10
      3.206463844618e-09
      4.473599476064e-09
      9.441484253866e-11
     -4.030204013674e-10
      7.267028837302e-10
      4.040076781659e-09
      7.835184681583e-09
      6.151083485784e-11
     -3.738399010662e-10
      5.884797828219e-10
      4.423684434482e-09
      7.969368199059e-09
     -7.039352645159e-11
     -1.874275547067e-10
      3.537692004971e-10
      4.378144779977e-09
      4.856631662406e-09
     -3.304330637591e-10
      1.875804403401e-10
     -2.093929866534e-11
      3.982390848251e-09
     -1.649731683616e-09
      1.922644359722e-04
     -3.465748447562e-04
      7.280642345861e-04
     -2.018586408160e-03
     -1.455059202346e-02
     -5.795069363918e-06
     -4.839895950538e-05
      1.740004959488e-04
     -1.004410375898e-03
     -1.162933851232e-02
     -7.357593085922e-05
      6.969237343162e-05
     -5.969178167924e-05
     -4.810410791542e-04
     -8.425056932756e-03
     -7.609176364631e-05
      9.293902294153e-05
     -1.182807489484e-04
     -2.215733903427e-04
     -5.071254835881e-03
     -4.932588127412e-05
      6.998086214419e-05
     -8.708352334106e-05
     -9.559463260217e-05
     -1.644113243451e-03
SCALARS eps22 double
LOOKUP_TABLE default
     -2.142857560056e-02
     -2.142857557833e-02
     -2.142857691659e-02
     -2.142857443929e-02
     -2.142855460808e-02
     -2.142857305684e-02
     -2.142857293739e-02
     -2.142857391076e-02
     -2.142857209082e-02
     -2.142856514704e-02
     -2.142857051674e-02
     -2.142857028204e-02
     -2.142857092270e-02
     -2.142856982228e-02
     -2.142857559909e-02
     -2.142856799919e-02
     -2.142856757618e-02
     -2.142856799705e-02
     -2.142856745121e-02
     -2.142858611922e-02
     -2.142856552555e-02
     -2.142856477931e-02
     -2.142856518178e-02
     -2.142856479469e-02
     -2.142859686153e-02
     -2.155977754537e-02
     -2.106922291566e-02
     -2.212629106043e-02
     -2.025205215700e-02
     -2.068100732934e-02
     -2.143537213389e-02
     -2.138714395870e-02
     -2.158598067939e-02
     -2.100250703591e-02
     -1.796044097051e-02
     -2.137886354573e-02
     -2.154115255475e-02
     -2.129336433240e-02
     -2.140495293176e-02
     -1.615014830079e-02
     -2.135826566102e-02
     -2.160460754440e-02
     -2.114985050231e-02
     -2.159933036838e-02
     -1.497797348432e-02
     -2.135644356906e-02
     -2.161754947514e-02
     -2.109986235783e-02
     -2.166787082893e-02
     -1.428480284821e-02
SCALARS sig11 double
LOOKUP_TABLE default
      1.153846376529e+04
      1.153846381838e+04
      1.153846451683e+04
      1.153846324825e+04
      1.153845234356e+04
      1.153846238241e+04
      1.153846244520e+04
      1.153846272730e+04
      1.153846217135e+04
      1.153845796605e+04
      1.153846099956e+04
      1.153846107005e+04
      1.153846094005e+04
      1.153846112160e+04
      1.153846356105e+04
      1.153845961626e+04
      1.153845969334e+04
      1.153845916099e+04
      1.153846004348e+04
      1.153846917824e+04
      1.153845823198e+04
      1.153845831542e+04
      1.153845739649e+04
      1.153845888051e+04
      1.153847486790e+04
      1.151725664393e+04
      1.160162548298e+04
      1.140562077819e+04
      1.177918558814e+04
      1.060361082702e+04
      1.152678897665e+04
      1.158495897432e+04
      1.141238985140e+04
      1.180290420844e+04
      9.335712323372e+03
      1.153271211847e+04
      1.157193109280e+04
      1.142565562585e+04
      1.179149764424e+04
      8.476698673257e+03
      1.153624129771e+04
      1.156256636672e+04
      1.143879118876e+04
      1.177022929893e+04
      7.910112083175e+03
      1.153793042056e+04
      1.155719918355e+04
      1.144747840594e+04
      1.175515986268e+04
      7.562961439733e+03
SCALARS sig12 double
LOOKUP_TABLE default
      6.059232617697e-06
     -4.606388686999e-05
      1.267854125863e-04
      5.179672364383e-04
      7.226583769027e-04
      1.525162841009e-05
     -6.510329560550e-05
      1.173904658333e-04
      6.526277878064e-04
      1.265683679333e-03
      9.936365630882e-06
     -6.038952247993e-05
      9.506211876354e-05
      7.145951778779e-04
      1.287359478309e-03
     -1.137126196526e-05
     -3.027675883723e-05
      5.714733238799e-05
      7.072387721501e-04
      7.845328070040e-04
     -5.337764876109e-05
      3.030145574725e-05
     -3.382502092093e-06
      6.433092908713e-04
     -2.664951181226e-04
      3.105810119551e+01
     -5.598516722985e+01
      1.176103763562e+02
     -3.260793428565e+02
     -2.350480249944e+03
     -9.361265895560e-01
     -7.818293458561e+00
      2.810777242250e+01
     -1.622509068759e+02
     -1.878585451990e+03
     -1.188534267726e+01
      1.125799878511e+01
     -9.642518578955e+00
     -7.770663586337e+01
     -1.360970735291e+03
     -1.229174643517e+01
      1.501322678286e+01
     -1.910689021474e+01
     -3.579262459382e+01
     -8.192027042578e+02
     -7.968026975050e+00
      1.130460080791e+01
     -1.406733838586e+01
     -1.544220988189e+01
     -2.655875239420e+02
SCALARS sig21 double
LOOKUP_TABLE default
      6.059232617697e-06
     -4.606388686999e-05
      1.267854125863e-04
      5.179672364383e-04
      7.226583769027e-04
      1.525162841009e-05
     -6.510329560550e-05
      1.173904658333e-04
      6.526277878064e-04
      1.265683679333e-03
      9.936365630882e-06
     -6.038952247993e-05
      9.506211876354e-05
      7.145951778779e-04
      1.287359478309e-03
     -1.137126196526e-05
     -3.027675883723e-05
      5.714733238799e-05
      7.072387721501e-04
      7.845328070040e-04
     -5.337764876109e-05
      3.030145574725e-05
     -3.382502092093e-06
      6.433092908713e-04
     -2.664951181226e-04
      3.105810119551e+01
     -5.598516722985e+01
      1.176103763562e+02
     -3.260793428565e+02
     -2.350480249944e+03
     -9.361265895560e-01
     -7.818293458561e+00
      2.810777242250e+01
     -1.622509068759e+02
     -1.878585451990e+03
     -1.188534267726e+01
      1.125799878511e+01
     -9.642518578955e+00
     -7.770663586337e+01
     -1.360970735291e+03
     -1.229174643517e+01
      1.501322678286e+01
     -1.910689021474e+01
     -3.579262459382e+01
     -8.192027042578e+02
     -7.968026975050e+00
      1.130460080791e+01
     -1.406733838586e+01
     -1.544220988189e+01
     -2.655875239420e+02
SCALARS sig22 double
LOOKUP_TABLE default
     -8.409403790210e-06
      1.946969291566e-05
      9.975727607525e-06
      3.798628495133e-05
     -5.902231964683e-05
     -1.406120304637e-05
      4.041175793645e-05
     -6.331116719593e-05
      1.184094708151e-04
     -8.144886874106e-05
     -2.053691514448e-05
      6.383659115272e-05
     -1.397202511271e-04
      1.920256390804e-04
     -9.560508874529e-05
     -3.240576575081e-05
      9.824639801082e-05
     -2.270288234740e-04
      2.771467989078e-04
     -1.159586379345e-04
     -5.482626170306e-05
      1.531412385702e-04
     -3.335618118854e-04
      3.917727453882e-04
     -1.565259462950e-04
     -3.936614658708e+01
      1.099968418391e+02
     -2.179439771373e+02
      3.746718971467e+02
     -2.281355127717e+02
     -6.571920025470e+00
      2.948765786808e+01
     -9.035593475244e+01
      2.116551249987e+02
     -1.436975798819e+02
      9.007012748108e+00
     -1.163616517114e+01
     -1.714375354249e+01
      1.138944676727e+02
     -9.408644021434e+01
      1.527287614484e+01
     -3.029307835553e+01
      2.160434959567e+01
      5.992313101396e+01
     -6.640738381141e+01
      1.641726869906e+01
     -3.557989911807e+01
      3.686316832095e+01
      3.764777183645e+01
     -5.522377651513e+01
