# vtk DataFile Version 3.0
truss_top_growth_BCTipp_C0_02.vtk
ASCII
DATASET UNSTRUCTURED_GRID
FIELD FieldData 2
TIME 1 1 double
2.000000e-01
CYCLE 1 1 int
2
POINTS 72 double
      0.000000000000e+00       0.000000000000e+00       0.000000000000e+00
      4.000000000000e+00       0.000000000000e+00       0.000000000000e+00
      8.000000000000e+00       0.000000000000e+00       0.000000000000e+00
      1.200000000000e+01       0.000000000000e+00       0.000000000000e+00
      1.600000000000e+01       0.000000000000e+00       0.000000000000e+00
      2.000000000000e+01       0.000000000000e+00       0.000000000000e+00
      0.000000000000e+00       2.000000000000e-01       0.000000000000e+00
      4.000000000000e+00       2.000000000000e-01       0.000000000000e+00
      8.000000000000e+00       2.000000000000e-01       0.000000000000e+00
      1.200000000000e+01       2.000000000000e-01       0.000000000000e+00
      1.600000000000e+01       2.000000000000e-01       0.000000000000e+00
      2.000000000000e+01       2.000000000000e-01       0.000000000000e+00
      0.000000000000e+00       4.000000000000e-01       0.000000000000e+00
      4.000000000000e+00       4.000000000000e-01       0.000000000000e+00
      8.000000000000e+00       4.000000000000e-01       0.000000000000e+00
      1.200000000000e+01       4.000000000000e-01       0.000000000000e+00
      1.600000000000e+01       4.000000000000e-01       0.000000000000e+00
      2.000000000000e+01       4.000000000000e-01       0.000000000000e+00
      0.000000000000e+00       6.000000000000e-01       0.000000000000e+00
      4.000000000000e+00       6.000000000000e-01       0.000000000000e+00
      8.000000000000e+00       6.000000000000e-01       0.000000000000e+00
      1.200000000000e+01       6.000000000000e-01       0.000000000000e+00
      1.600000000000e+01       6.000000000000e-01       0.000000000000e+00
      2.000000000000e+01       6.000000000000e-01       0.000000000000e+00
      0.000000000000e+00       8.000000000000e-01       0.000000000000e+00
      4.000000000000e+00       8.000000000000e-01       0.000000000000e+00
      8.000000000000e+00       8.000000000000e-01       0.000000000000e+00
      1.200000000000e+01       8.000000000000e-01       0.000000000000e+00
      1.600000000000e+01       8.000000000000e-01       0.000000000000e+00
      2.000000000000e+01       8.000000000000e-01       0.000000000000e+00
      0.000000000000e+00       1.000000000000e+00       0.000000000000e+00
      4.000000000000e+00       1.000000000000e+00       0.000000000000e+00
      8.000000000000e+00       1.000000000000e+00       0.000000000000e+00
      1.200000000000e+01       1.000000000000e+00       0.000000000000e+00
      1.600000000000e+01       1.000000000000e+00       0.000000000000e+00
      2.000000000000e+01       1.000000000000e+00       0.000000000000e+00
      0.000000000000e+00       1.000000000000e+00       0.000000000000e+00
      4.000000000000e+00       1.000000000000e+00       0.000000000000e+00
      8.000000000000e+00       1.000000000000e+00       0.000000000000e+00
      1.200000000000e+01       1.000000000000e+00       0.000000000000e+00
      1.600000000000e+01       1.000000000000e+00       0.000000000000e+00
      2.000000000000e+01       1.000000000000e+00       0.000000000000e+00
      0.000000000000e+00       1.200000000000e+00       0.000000000000e+00
      4.000000000000e+00       1.200000000000e+00       0.000000000000e+00
      8.000000000000e+00       1.200000000000e+00       0.000000000000e+00
      1.200000000000e+01       1.200000000000e+00       0.000000000000e+00
      1.600000000000e+01       1.200000000000e+00       0.000000000000e+00
      2.000000000000e+01       1.200000000000e+00       0.000000000000e+00
      0.000000000000e+00       1.400000000000e+00       0.000000000000e+00
      4.000000000000e+00       1.400000000000e+00       0.000000000000e+00
      8.000000000000e+00       1.400000000000e+00       0.000000000000e+00
      1.200000000000e+01       1.400000000000e+00       0.000000000000e+00
      1.600000000000e+01       1.400000000000e+00       0.000000000000e+00
      2.000000000000e+01       1.400000000000e+00       0.000000000000e+00
      0.000000000000e+00       1.600000000000e+00       0.000000000000e+00
      4.000000000000e+00       1.600000000000e+00       0.000000000000e+00
      8.000000000000e+00       1.600000000000e+00       0.000000000000e+00
      1.200000000000e+01       1.600000000000e+00       0.000000000000e+00
      1.600000000000e+01       1.600000000000e+00       0.000000000000e+00
      2.000000000000e+01       1.600000000000e+00       0.000000000000e+00
      0.000000000000e+00       1.800000000000e+00       0.000000000000e+00
      4.000000000000e+00       1.800000000000e+00       0.000000000000e+00
      8.000000000000e+00       1.800000000000e+00       0.000000000000e+00
      1.200000000000e+01       1.800000000000e+00       0.000000000000e+00
      1.600000000000e+01       1.800000000000e+00       0.000000000000e+00
      2.000000000000e+01       1.800000000000e+00       0.000000000000e+00
      0.000000000000e+00       2.000000000000e+00       0.000000000000e+00
      4.000000000000e+00       2.000000000000e+00       0.000000000000e+00
      8.000000000000e+00       2.000000000000e+00       0.000000000000e+00
      1.200000000000e+01       2.000000000000e+00       0.000000000000e+00
      1.600000000000e+01       2.000000000000e+00       0.000000000000e+00
      2.000000000000e+01       2.000000000000e+00       0.000000000000e+00
CELLS 50 250
4         0        1        7        6
4         1        2        8        7
4         2        3        9        8
4         3        4       10        9
4         4        5       11       10
4         6        7       13       12
4         7        8       14       13
4         8        9       15       14
4         9       10       16       15
4        10       11       17       16
4        12       13       19       18
4        13       14       20       19
4        14       15       21       20
4        15       16       22       21
4        16       17       23       22
4        18       19       25       24
4        19       20       26       25
4        20       21       27       26
4        21       22       28       27
4        22       23       29       28
4        24       25       31       30
4        25       26       32       31
4        26       27       33       32
4        27       28       34       33
4        28       29       35       34
4        36       37       43       42
4        37       38       44       43
4        38       39       45       44
4        39       40       46       45
4        40       41       47       46
4        42       43       49       48
4        43       44       50       49
4        44       45       51       50
4        45       46       52       51
4        46       47       53       52
4        48       49       55       54
4        49       50       56       55
4        50       51       57       56
4        51       52       58       57
4        52       53       59       58
4        54       55       61       60
4        55       56       62       61
4        56       57       63       62
4        57       58       64       63
4        58       59       65       64
4        60       61       67       66
4        61       62       68       67
4        62       63       69       68
4        63       64       70       69
4        64       65       71       70
CELL_TYPES 50
9
9
9
9
9
9
9
9
9
9
9
9
9
9
9
9
9
9
9
9
9
9
9
9
9
9
9
9
9
9
9
9
9
9
9
9
9
9
9
9
9
9
9
9
9
9
9
9
9
9
POINT_DATA 72
VECTORS DSPL double
      0.000000000000e+00       0.000000000000e+00       0.000000000000e+00
      2.000399523103e-01       3.060490615782e-04       0.000000000000e+00
      4.001856606889e-01       1.314724602973e-03       0.000000000000e+00
      6.000531848395e-01       2.952208820179e-03       0.000000000000e+00
      8.002941270942e-01       4.363147837920e-03       0.000000000000e+00
      1.000000000000e+00       8.613201887571e-03       0.000000000000e+00
      0.000000000000e+00      -4.291342059255e-03       0.000000000000e+00
      2.000133645836e-01      -3.980209288798e-03       0.000000000000e+00
      4.001028053863e-01      -2.972905820181e-03       0.000000000000e+00
      5.999987524689e-01      -1.328768204945e-03       0.000000000000e+00
      8.001455403228e-01       6.331838933465e-05       0.000000000000e+00
      1.000000000000e+00       4.382968427159e-03       0.000000000000e+00
      0.000000000000e+00      -8.577009220754e-03       0.000000000000e+00
      1.999856488641e-01      -8.265601555042e-03       0.000000000000e+00
      4.000222437005e-01      -7.261371583242e-03       0.000000000000e+00
      5.999416063613e-01      -5.607371789358e-03       0.000000000000e+00
      7.999995340164e-01      -4.238897647776e-03       0.000000000000e+00
      1.000000000000e+00       1.606272673345e-04       0.000000000000e+00
      0.000000000000e+00      -1.285752053311e-02       0.000000000000e+00
      1.999577215185e-01      -1.254999678365e-02       0.000000000000e+00
      3.999421579365e-01      -1.155083722940e-02       0.000000000000e+00
      5.998840432992e-01      -9.883246615030e-03       0.000000000000e+00
      7.998534647065e-01      -8.544279611831e-03       0.000000000000e+00
      1.000000000000e+00      -4.051066158504e-03       0.000000000000e+00
      0.000000000000e+00      -1.713243832608e-02       0.000000000000e+00
      1.999305022515e-01      -1.683344054257e-02       0.000000000000e+00
      3.998607197307e-01      -1.584134541823e-02       0.000000000000e+00
      5.998283807762e-01      -1.415629215768e-02       0.000000000000e+00
      7.997046690459e-01      -1.285297029447e-02       0.000000000000e+00
      1.000000000000e+00      -8.251345176124e-03       0.000000000000e+00
      0.000000000000e+00      -2.140031630687e-02       0.000000000000e+00
      1.999049773465e-01      -2.111616577821e-02       0.000000000000e+00
      3.997759936643e-01      -2.013280996845e-02       0.000000000000e+00
      5.997770506559e-01      -1.842667352861e-02       0.000000000000e+00
      7.995504035010e-01      -1.716445437126e-02       0.000000000000e+00
      1.000000000000e+00      -1.244149613647e-02       0.000000000000e+00
      0.000000000000e+00      -2.140031630687e-02       0.000000000000e+00
      1.999049773465e-01      -2.111616577821e-02       0.000000000000e+00
      3.997759936643e-01      -2.013280996845e-02       0.000000000000e+00
      5.997770506559e-01      -1.842667352861e-02       0.000000000000e+00
      7.995504035010e-01      -1.716445437126e-02       0.000000000000e+00
      1.000000000000e+00      -1.244149613647e-02       0.000000000000e+00
      0.000000000000e+00      -2.567202639560e-02       0.000000000000e+00
      1.998476822974e-01      -2.539841495082e-02       0.000000000000e+00
      3.997749202010e-01      -2.442167322145e-02       0.000000000000e+00
      5.995352951317e-01      -2.270043308771e-02       0.000000000000e+00
      7.998791146009e-01      -2.147015623201e-02       0.000000000000e+00
      9.968597867566e-01      -1.659607649165e-02       0.000000000000e+00
      0.000000000000e+00      -2.990914106820e-02       0.000000000000e+00
      1.997220224727e-01      -2.966366479944e-02       0.000000000000e+00
      3.999660067550e-01      -2.876303849915e-02       0.000000000000e+00
      5.988350940043e-01      -2.684931316524e-02       0.000000000000e+00
      8.012653381732e-01      -2.610699526458e-02       0.000000000000e+00
      9.809922304406e-01      -1.884643732847e-02       0.000000000000e+00
      0.000000000000e+00      -3.418713482359e-02       0.000000000000e+00
      1.996193610267e-01      -3.392412232959e-02       0.000000000000e+00
      4.001114509694e-01      -3.310531592569e-02       0.000000000000e+00
      5.982049841844e-01      -3.097954326370e-02       0.000000000000e+00
      8.024638020464e-01      -3.081459949770e-02       0.000000000000e+00
      9.629044799558e-01      -1.972663512900e-02       0.000000000000e+00
      0.000000000000e+00      -3.855446622786e-02       0.000000000000e+00
      1.995797353820e-01      -3.819904346364e-02       0.000000000000e+00
      4.000877651725e-01      -3.738456904078e-02       0.000000000000e+00
      5.979585353409e-01      -3.523549215820e-02       0.000000000000e+00
      8.027894887862e-01      -3.521812931027e-02       0.000000000000e+00
      9.538523812345e-01      -2.097630941306e-02       0.000000000000e+00
      0.000000000000e+00      -4.292747266372e-02       0.000000000000e+00
      1.995537868465e-01      -4.247889325008e-02       0.000000000000e+00
      4.000177705915e-01      -4.164814090294e-02       0.000000000000e+00
      5.978354848976e-01      -3.952131209691e-02       0.000000000000e+00
      8.028426846970e-01      -3.954290476251e-02       0.000000000000e+00
      9.491784327762e-01      -2.212555161502e-02       0.000000000000e+00
CELL_DATA 50
SCALARS eps11 double
LOOKUP_TABLE default
      5.000669779354e-02
      5.002929356958e-02
      4.997058137952e-02
      5.004830434744e-02
      4.994512290993e-02
      4.999989049885e-02
      5.001571196591e-02
      4.997697488230e-02
      5.002553076300e-02
      4.998189188994e-02
      4.999291629767e-02
      5.000264274796e-02
      4.998263204175e-02
      5.000346256046e-02
      5.001834635216e-02
      4.998600346811e-02
      4.998940375101e-02
      4.998858172135e-02
      4.998086256903e-02
      5.005514849050e-02
      4.997938885447e-02
      4.997528980337e-02
      4.999588382336e-02
      4.995646470856e-02
      5.009297281025e-02
      4.997047556893e-02
      4.996976691509e-02
      4.998192671933e-02
      4.998611346578e-02
      4.983003289391e-02
      4.994766851513e-02
      5.001556243613e-02
      4.984404361098e-02
      5.031212610843e-02
      4.751156522186e-02
      4.991525925279e-02
      5.010070964514e-02
      4.960014448426e-02
      5.088150839213e-02
      4.218251137270e-02
      4.989967424401e-02
      5.012598817514e-02
      4.949268803888e-02
      5.114319736305e-02
      3.886352999007e-02
      4.989133320608e-02
      5.012302789565e-02
      4.945683931070e-02
      5.123928859050e-02
      3.705546965839e-02
SCALARS eps12 double
LOOKUP_TABLE default
     -8.604815805050e-06
      1.557746859587e-05
     -2.819282463924e-05
      3.418521165598e-05
      1.359206209562e-04
     -4.719501248490e-06
      9.892337330442e-06
     -1.731213538235e-05
      1.670784969244e-05
      1.663914371280e-04
     -4.281342128782e-06
      8.411667938005e-06
     -1.381396852470e-05
      1.031336543134e-05
      1.797407068029e-04
     -7.231886590806e-06
      1.107053411674e-05
     -1.762584649323e-05
      1.492869609867e-05
      1.761821700509e-04
     -1.403967123264e-05
      1.835694346517e-05
     -2.942838621509e-05
      3.147939891865e-05
      1.545929212023e-04
      4.554984014922e-05
     -8.046420251672e-05
      1.645552306738e-04
     -3.275058169757e-04
     -6.406110555808e-04
      1.312079669013e-04
     -2.388397080365e-04
      5.296898500067e-04
     -1.192868850649e-03
     -7.147108894907e-03
      4.740819761023e-05
     -1.322141205039e-04
      3.684383357594e-04
     -1.044180383322e-03
     -9.347866506425e-03
     -4.242749965031e-05
      3.121160744076e-05
      2.089657404248e-05
     -3.127030171940e-04
     -4.758684144025e-03
     -3.001129211508e-05
      3.794374381502e-05
     -2.503251424749e-05
     -1.329187924535e-04
     -1.708815616154e-03
SCALARS eps21 double
LOOKUP_TABLE default
     -8.604815805050e-06
      1.557746859587e-05
     -2.819282463924e-05
      3.418521165598e-05
      1.359206209562e-04
     -4.719501248490e-06
      9.892337330442e-06
     -1.731213538235e-05
      1.670784969244e-05
      1.663914371280e-04
     -4.281342128782e-06
      8.411667938005e-06
     -1.381396852470e-05
      1.031336543134e-05
      1.797407068029e-04
     -7.231886590806e-06
      1.107053411674e-05
     -1.762584649323e-05
      1.492869609867e-05
      1.761821700509e-04
     -1.403967123264e-05
      1.835694346517e-05
     -2.942838621509e-05
      3.147939891865e-05
      1.545929212023e-04
      4.554984014922e-05
     -8.046420251672e-05
      1.645552306738e-04
     -3.275058169757e-04
     -6.406110555808e-04
      1.312079669013e-04
     -2.388397080365e-04
      5.296898500067e-04
     -1.192868850649e-03
     -7.147108894907e-03
      4.740819761023e-05
     -1.322141205039e-04
      3.684383357594e-04
     -1.044180383322e-03
     -9.347866506425e-03
     -4.242749965031e-05
      3.121160744076e-05
      2.089657404248e-05
     -3.127030171940e-04
     -4.758684144025e-03
     -3.001129211508e-05
      3.794374381502e-05
     -2.503251424749e-05
     -1.329187924535e-04
     -1.708815616154e-03
SCALARS eps22 double
LOOKUP_TABLE default
     -2.142904822954e-02
     -2.144429491032e-02
     -2.141863353654e-02
     -2.143364641718e-02
     -2.141723404928e-02
     -2.143007748355e-02
     -2.142942583235e-02
     -2.143367233916e-02
     -2.140815455722e-02
     -2.144152693059e-02
     -2.143080923178e-02
     -2.141512055648e-02
     -2.144843384171e-02
     -2.138214434646e-02
     -2.146634916642e-02
     -2.143184156333e-02
     -2.140016013245e-02
     -2.146404329566e-02
     -2.135492510780e-02
     -2.149188704361e-02
     -2.143380139972e-02
     -2.138327105621e-02
     -2.148167028956e-02
     -2.132578656167e-02
     -2.151832783570e-02
     -2.142635822703e-02
     -2.138959182661e-02
     -2.146284441292e-02
     -2.135316117067e-02
     -2.139875109148e-02
     -2.146497003451e-02
     -2.126749554011e-02
     -2.169848952146e-02
     -2.092438484580e-02
     -2.065327689519e-02
     -2.142835546720e-02
     -2.134181337033e-02
     -2.159118218764e-02
     -2.102682123487e-02
     -1.870792015093e-02
     -2.133413818348e-02
     -2.157631024246e-02
     -2.117016057240e-02
     -2.167413693705e-02
     -1.685876711105e-02
     -2.131937146791e-02
     -2.160725760507e-02
     -2.109267101791e-02
     -2.179337409746e-02
     -1.609689915187e-02
SCALARS sig11 double
LOOKUP_TABLE default
      1.154029718690e+04
      1.154483764496e+04
      1.153134913459e+04
      1.155150195152e+04
      1.152432177434e+04
      1.153824811898e+04
      1.154279967606e+04
      1.153133451987e+04
      1.154815247126e+04
      1.153177290614e+04
      1.153618791184e+04
      1.154083824787e+04
      1.153114534252e+04
      1.154506519723e+04
      1.153907099285e+04
      1.153410863716e+04
      1.153890819818e+04
      1.153093612579e+04
      1.154197406895e+04
      1.154638066222e+04
      1.153200129505e+04
      1.153696447030e+04
      1.153086479575e+04
      1.153860722841e+04
      1.155386990280e+04
      1.153038334679e+04
      1.153463740662e+04
      1.152920005717e+04
      1.154367216484e+04
      1.149402599354e+04
      1.151925799914e+04
      1.156237588285e+04
      1.146167225185e+04
      1.168778133203e+04
      1.092893008311e+04
      1.151453214563e+04
      1.157744245289e+04
      1.140572454109e+04
      1.183633076124e+04
      9.658135004382e+03
      1.152154116983e+04
      1.155617830091e+04
      1.142635581857e+04
      1.183188343333e+04
      8.943916501046e+03
      1.152097226695e+04
      1.155159206066e+04
      1.142560981643e+04
      1.184460164358e+04
      8.525094986954e+03
SCALARS sig12 double
LOOKUP_TABLE default
     -1.390008706970e+00
      2.516360311641e+00
     -4.554225518647e+00
      5.522226498274e+00
      2.195640800062e+01
     -7.623809709099e-01
      1.597992953379e+00
     -2.796575715610e+00
      2.698960334932e+00
      2.687861676683e+01
     -6.916014208033e-01
      1.358807897678e+00
     -2.231487223220e+00
      1.666005185063e+00
      2.903503725278e+01
     -1.168227833899e+00
      1.788317049627e+00
     -2.847252125829e+00
      2.411558600554e+00
      2.846019670053e+01
     -2.267946891427e+00
      2.965352405912e+00
     -4.753816234745e+00
      5.085133671474e+00
      2.497270265576e+01
      7.358051101027e+00
     -1.299806348347e+01
      2.658199880116e+01
     -5.290478581915e+01
     -1.034833243631e+02
      2.119513311482e+01
     -3.858179899052e+01
      8.556528346262e+01
     -1.926941989509e+02
     -1.154532975331e+03
      7.658247306268e+00
     -2.135766561985e+01
      5.951696193037e+01
     -1.686752926905e+02
     -1.510039974115e+03
     -6.853673020435e+00
      5.041875048124e+00
      3.375600422246e+00
     -5.051356431596e+01
     -7.687105155732e+02
     -4.847977957051e+00
      6.129374000887e+00
     -4.043713839978e+00
     -2.147149724248e+01
     -2.760394456865e+02
SCALARS sig21 double
LOOKUP_TABLE default
     -1.390008706970e+00
      2.516360311641e+00
     -4.554225518647e+00
      5.522226498274e+00
      2.195640800062e+01
     -7.623809709099e-01
      1.597992953379e+00
     -2.796575715610e+00
      2.698960334932e+00
      2.687861676683e+01
     -6.916014208033e-01
      1.358807897678e+00
     -2.231487223220e+00
      1.666005185063e+00
      2.903503725278e+01
     -1.168227833899e+00
      1.788317049627e+00
     -2.847252125829e+00
      2.411558600554e+00
      2.846019670053e+01
     -2.267946891427e+00
      2.965352405912e+00
     -4.753816234745e+00
      5.085133671474e+00
      2.497270265576e+01
      7.358051101027e+00
     -1.299806348347e+01
      2.658199880116e+01
     -5.290478581915e+01
     -1.034833243631e+02
      2.119513311482e+01
     -3.858179899052e+01
      8.556528346262e+01
     -1.926941989509e+02
     -1.154532975331e+03
      7.658247306268e+00
     -2.135766561985e+01
      5.951696193037e+01
     -1.686752926905e+02
     -1.510039974115e+03
     -6.853673020435e+00
      5.041875048124e+00
      3.375600422246e+00
     -5.051356431596e+01
     -7.687105155732e+02
     -4.847977957051e+00
      6.129374000887e+00
     -4.043713839978e+00
     -2.147149724248e+01
     -2.760394456865e+02
SCALARS sig22 double
LOOKUP_TABLE default
      6.766754823668e-01
     -8.958787173419e-01
     -7.548133885987e-01
      4.417597236230e+00
     -3.443580612658e+00
     -4.390166420360e-01
      1.662031724290e+00
     -4.231569751747e+00
      8.864842611767e+00
     -5.856287942270e+00
     -1.490827536474e+00
      4.122637150681e+00
     -7.719146348743e+00
      1.354408150035e+01
     -8.456744765803e+00
     -2.620175613076e+00
      6.747878544204e+00
     -1.141099234093e+01
      1.850067500399e+01
     -1.121738559418e+01
     -3.975592168880e+00
      9.812331441353e+00
     -1.550933017970e+01
      2.378202321844e+01
     -1.410943231121e+01
     -2.951343327650e+00
      7.356379114325e+00
     -1.187835650290e+01
      1.963549279882e+01
     -1.216218871448e+01
     -1.662976657619e+01
      4.742036361426e+01
     -9.519848492784e+01
      1.803449471116e+02
     -8.231364349167e+01
     -1.020561683157e+01
      3.672719654980e+01
     -9.441284437330e+01
      2.203698214970e+02
     -1.780116263590e+02
      1.454070077193e+01
     -2.650067424595e+01
      1.158796597327e+01
      6.908327716361e+01
     -5.737764605743e+01
      1.770458884799e+01
     -3.560790484450e+01
      2.915045565678e+01
      4.701767091330e+01
     -6.105689778181e+01
