# vtk DataFile Version 3.0
truss_top_growth_BCTipp_05.vtk
ASCII
DATASET UNSTRUCTURED_GRID
FIELD FieldData 2
TIME 1 1 double
8.000000e-01
CYCLE 1 1 int
5
POINTS 72 double
      0.000000000000e+00       0.000000000000e+00       0.000000000000e+00
      4.000000000000e+00       0.000000000000e+00       0.000000000000e+00
      8.000000000000e+00       0.000000000000e+00       0.000000000000e+00
      1.200000000000e+01       0.000000000000e+00       0.000000000000e+00
      1.600000000000e+01       0.000000000000e+00       0.000000000000e+00
      2.000000000000e+01       0.000000000000e+00       0.000000000000e+00
      0.000000000000e+00       2.000000000000e-01       0.000000000000e+00
      4.000000000000e+00       2.000000000000e-01       0.000000000000e+00
      8.000000000000e+00       2.000000000000e-01       0.000000000000e+00
      1.200000000000e+01       2.000000000000e-01       0.000000000000e+00
      1.600000000000e+01       2.000000000000e-01       0.000000000000e+00
      2.000000000000e+01       2.000000000000e-01       0.000000000000e+00
      0.000000000000e+00       4.000000000000e-01       0.000000000000e+00
      4.000000000000e+00       4.000000000000e-01       0.000000000000e+00
      8.000000000000e+00       4.000000000000e-01       0.000000000000e+00
      1.200000000000e+01       4.000000000000e-01       0.000000000000e+00
      1.600000000000e+01       4.000000000000e-01       0.000000000000e+00
      2.000000000000e+01       4.000000000000e-01       0.000000000000e+00
      0.000000000000e+00       6.000000000000e-01       0.000000000000e+00
      4.000000000000e+00       6.000000000000e-01       0.000000000000e+00
      8.000000000000e+00       6.000000000000e-01       0.000000000000e+00
      1.200000000000e+01       6.000000000000e-01       0.000000000000e+00
      1.600000000000e+01       6.000000000000e-01       0.000000000000e+00
      2.000000000000e+01       6.000000000000e-01       0.000000000000e+00
      0.000000000000e+00       8.000000000000e-01       0.000000000000e+00
      4.000000000000e+00       8.000000000000e-01       0.000000000000e+00
      8.000000000000e+00       8.000000000000e-01       0.000000000000e+00
      1.200000000000e+01       8.000000000000e-01       0.000000000000e+00
      1.600000000000e+01       8.000000000000e-01       0.000000000000e+00
      2.000000000000e+01       8.000000000000e-01       0.000000000000e+00
      0.000000000000e+00       1.000000000000e+00       0.000000000000e+00
      4.000000000000e+00       1.000000000000e+00       0.000000000000e+00
      8.000000000000e+00       1.000000000000e+00       0.000000000000e+00
      1.200000000000e+01       1.000000000000e+00       0.000000000000e+00
      1.600000000000e+01       1.000000000000e+00       0.000000000000e+00
      2.000000000000e+01       1.000000000000e+00       0.000000000000e+00
      0.000000000000e+00       1.000000000000e+00       0.000000000000e+00
      4.000000000000e+00       1.000000000000e+00       0.000000000000e+00
      8.000000000000e+00       1.000000000000e+00       0.000000000000e+00
      1.200000000000e+01       1.000000000000e+00       0.000000000000e+00
      1.600000000000e+01       1.000000000000e+00       0.000000000000e+00
      2.000000000000e+01       1.000000000000e+00       0.000000000000e+00
      0.000000000000e+00       1.200000000000e+00       0.000000000000e+00
      4.000000000000e+00       1.200000000000e+00       0.000000000000e+00
      8.000000000000e+00       1.200000000000e+00       0.000000000000e+00
      1.200000000000e+01       1.200000000000e+00       0.000000000000e+00
      1.600000000000e+01       1.200000000000e+00       0.000000000000e+00
      2.000000000000e+01       1.200000000000e+00       0.000000000000e+00
      0.000000000000e+00       1.400000000000e+00       0.000000000000e+00
      4.000000000000e+00       1.400000000000e+00       0.000000000000e+00
      8.000000000000e+00       1.400000000000e+00       0.000000000000e+00
      1.200000000000e+01       1.400000000000e+00       0.000000000000e+00
      1.600000000000e+01       1.400000000000e+00       0.000000000000e+00
      2.000000000000e+01       1.400000000000e+00       0.000000000000e+00
      0.000000000000e+00       1.600000000000e+00       0.000000000000e+00
      4.000000000000e+00       1.600000000000e+00       0.000000000000e+00
      8.000000000000e+00       1.600000000000e+00       0.000000000000e+00
      1.200000000000e+01       1.600000000000e+00       0.000000000000e+00
      1.600000000000e+01       1.600000000000e+00       0.000000000000e+00
      2.000000000000e+01       1.600000000000e+00       0.000000000000e+00
      0.000000000000e+00       1.800000000000e+00       0.000000000000e+00
      4.000000000000e+00       1.800000000000e+00       0.000000000000e+00
      8.000000000000e+00       1.800000000000e+00       0.000000000000e+00
      1.200000000000e+01       1.800000000000e+00       0.000000000000e+00
      1.600000000000e+01       1.800000000000e+00       0.000000000000e+00
      2.000000000000e+01       1.800000000000e+00       0.000000000000e+00
      0.000000000000e+00       2.000000000000e+00       0.000000000000e+00
      4.000000000000e+00       2.000000000000e+00       0.000000000000e+00
      8.000000000000e+00       2.000000000000e+00       0.000000000000e+00
      1.200000000000e+01       2.000000000000e+00       0.000000000000e+00
      1.600000000000e+01       2.000000000000e+00       0.000000000000e+00
      2.000000000000e+01       2.000000000000e+00       0.000000000000e+00
CELLS 50 250
4         0        1        7        6
4         1        2        8        7
4         2        3        9        8
4         3        4       10        9
4         4        5       11       10
4         6        7       13       12
4         7        8       14       13
4         8        9       15       14
4         9       10       16       15
4        10       11       17       16
4        12       13       19       18
4        13       14       20       19
4        14       15       21       20
4        15       16       22       21
4        16       17       23       22
4        18       19       25       24
4        19       20       26       25
4        20       21       27       26
4        21       22       28       27
4        22       23       29       28
4        24       25       31       30
4        25       26       32       31
4        26       27       33       32
4        27       28       34       33
4        28       29       35       34
4        36       37       43       42
4        37       38       44       43
4        38       39       45       44
4        39       40       46       45
4        40       41       47       46
4        42       43       49       48
4        43       44       50       49
4        44       45       51       50
4        45       46       52       51
4        46       47       53       52
4        48       49       55       54
4        49       50       56       55
4        50       51       57       56
4        51       52       58       57
4        52       53       59       58
4        54       55       61       60
4        55       56       62       61
4        56       57       63       62
4        57       58       64       63
4        58       59       65       64
4        60       61       67       66
4        61       62       68       67
4        62       63       69       68
4        63       64       70       69
4        64       65       71       70
CELL_TYPES 50
9
9
9
9
9
9
9
9
9
9
9
9
9
9
9
9
9
9
9
9
9
9
9
9
9
9
9
9
9
9
9
9
9
9
9
9
9
9
9
9
9
9
9
9
9
9
9
9
9
9
POINT_DATA 72
VECTORS DSPL double
      0.000000000000e+00       0.000000000000e+00       0.000000000000e+00
      1.975332916464e-01      -1.997835945168e-02       0.000000000000e+00
      3.999552472771e-01      -2.830123244492e-02       0.000000000000e+00
      6.000447527229e-01      -2.830123244493e-02       0.000000000000e+00
      8.024667083536e-01      -1.997835945170e-02       0.000000000000e+00
      1.000000000000e+00      -2.225195323905e-14       0.000000000000e+00
      0.000000000000e+00      -4.019633206030e-03       0.000000000000e+00
      1.983999841607e-01      -2.432763491676e-02       0.000000000000e+00
      4.000473811272e-01      -3.259648892302e-02       0.000000000000e+00
      5.999526188728e-01      -3.259648892303e-02       0.000000000000e+00
      8.016000158393e-01      -2.432763491678e-02       0.000000000000e+00
      1.000000000000e+00      -4.019633206052e-03       0.000000000000e+00
      0.000000000000e+00      -8.016202526523e-03       0.000000000000e+00
      1.992362166309e-01      -2.868184806924e-02       0.000000000000e+00
      4.001645408310e-01      -3.687851568598e-02       0.000000000000e+00
      5.998354591690e-01      -3.687851568599e-02       0.000000000000e+00
      8.007637833691e-01      -2.868184806926e-02       0.000000000000e+00
      1.000000000000e+00      -8.016202526545e-03       0.000000000000e+00
      0.000000000000e+00      -1.197701164916e-02       0.000000000000e+00
      2.000597635801e-01      -3.304479810085e-02       0.000000000000e+00
      4.002923705211e-01      -4.114641521781e-02       0.000000000000e+00
      5.997076294789e-01      -4.114641521782e-02       0.000000000000e+00
      7.999402364199e-01      -3.304479810087e-02       0.000000000000e+00
      1.000000000000e+00      -1.197701164918e-02       0.000000000000e+00
      0.000000000000e+00      -1.589407550165e-02       0.000000000000e+00
      2.008882353980e-01      -3.741842381007e-02       0.000000000000e+00
      4.004167272005e-01      -4.539969484033e-02       0.000000000000e+00
      5.995832727995e-01      -4.539969484034e-02       0.000000000000e+00
      7.991117646020e-01      -3.741842381009e-02       0.000000000000e+00
      1.000000000000e+00      -1.589407550167e-02       0.000000000000e+00
      0.000000000000e+00      -1.976399155330e-02       0.000000000000e+00
      2.017395793828e-01      -4.180282351686e-02       0.000000000000e+00
      4.005229633631e-01      -4.963826304218e-02       0.000000000000e+00
      5.994770366369e-01      -4.963826304219e-02       0.000000000000e+00
      7.982604206172e-01      -4.180282351688e-02       0.000000000000e+00
      1.000000000000e+00      -1.976399155333e-02       0.000000000000e+00
      0.000000000000e+00      -1.976399155330e-02       0.000000000000e+00
      2.017395793828e-01      -4.180282351686e-02       0.000000000000e+00
      4.005229633631e-01      -4.963826304218e-02       0.000000000000e+00
      5.994770366369e-01      -4.963826304219e-02       0.000000000000e+00
      7.982604206172e-01      -4.180282351688e-02       0.000000000000e+00
      1.000000000000e+00      -1.976399155333e-02       0.000000000000e+00
      0.000000000000e+00      -2.358659051959e-02       0.000000000000e+00
      2.026321739195e-01      -4.619569993880e-02       0.000000000000e+00
      4.005956468554e-01      -5.386260647252e-02       0.000000000000e+00
      5.994043531446e-01      -5.386260647253e-02       0.000000000000e+00
      7.973678260805e-01      -4.619569993882e-02       0.000000000000e+00
      1.000000000000e+00      -2.358659051961e-02       0.000000000000e+00
      0.000000000000e+00      -2.737681652732e-02       0.000000000000e+00
      2.035884470850e-01      -5.059730720642e-02       0.000000000000e+00
      4.006150857373e-01      -5.807230009414e-02       0.000000000000e+00
      5.993849142627e-01      -5.807230009415e-02       0.000000000000e+00
      7.964115529150e-01      -5.059730720644e-02       0.000000000000e+00
      1.000000000000e+00      -2.737681652734e-02       0.000000000000e+00
      9.120960734869e-03      -3.107735467441e-02       0.000000000000e+00
      2.030967152051e-01      -5.496690032412e-02       0.000000000000e+00
      4.013978185717e-01      -6.227903261226e-02       0.000000000000e+00
      5.986021814283e-01      -6.227903261226e-02       0.000000000000e+00
      7.969032847949e-01      -5.496690032414e-02       0.000000000000e+00
      9.908790392651e-01      -3.107735467443e-02       0.000000000000e+00
      1.783479875841e-02      -3.459209404809e-02       0.000000000000e+00
      2.026454858189e-01      -5.925539539310e-02       0.000000000000e+00
      4.021498380751e-01      -6.649750832506e-02       0.000000000000e+00
      5.978501619249e-01      -6.649750832507e-02       0.000000000000e+00
      7.973545141812e-01      -5.925539539312e-02       0.000000000000e+00
      9.821652012416e-01      -3.459209404811e-02       0.000000000000e+00
      2.178943955859e-02      -3.791649958203e-02       0.000000000000e+00
      2.029819205184e-01      -6.352307590573e-02       0.000000000000e+00
      4.024759536227e-01      -7.071105313732e-02       0.000000000000e+00
      5.975240463773e-01      -7.071105313733e-02       0.000000000000e+00
      7.970180794816e-01      -6.352307590575e-02       0.000000000000e+00
      9.782105604414e-01      -3.791649958205e-02       0.000000000000e+00
CELL_DATA 50
SCALARS eps11 double
LOOKUP_TABLE default
      4.949248133940e-02
      5.050717337424e-02
      5.000069057274e-02
      5.050717337424e-02
      4.949248133940e-02
      4.970497240394e-02
      5.032114893383e-02
      4.994775732446e-02
      5.032114893383e-02
      4.970497240394e-02
      4.991207878475e-02
      5.014495945851e-02
      4.988592351347e-02
      5.014495945851e-02
      4.991207878475e-02
      5.011821341102e-02
      4.997064418871e-02
      4.982228480054e-02
      4.997064418871e-02
      5.011821341102e-02
      5.032781030189e-02
      4.979018565556e-02
      4.976400808510e-02
      4.979018565556e-02
      5.032781030189e-02
      5.054543151863e-02
      4.959524097264e-02
      4.971865501746e-02
      4.959524097264e-02
      5.054543151863e-02
      5.077596199351e-02
      4.937675189204e-02
      4.969457222890e-02
      4.937675189204e-02
      5.077596199351e-02
      5.013751440063e-02
      4.932084235060e-02
      4.956312637506e-02
      4.932084235060e-02
      5.013751440063e-02
      4.688766493491e-02
      4.982377468063e-02
      4.904417394175e-02
      4.982377468063e-02
      4.688766493491e-02
      4.597991703774e-02
      4.982727077735e-02
      4.887697197579e-02
      4.982727077735e-02
      4.597991703774e-02
SCALARS eps12 double
LOOKUP_TABLE default
     -5.045352659440e-04
     -8.456304654075e-05
      1.757593365553e-17
      8.456304654068e-05
      5.045352659440e-04
     -6.651420224943e-04
     -3.955544139676e-05
     -4.548566926756e-18
      3.955544139670e-05
      6.651420224943e-04
     -7.619905161365e-04
     -1.303579049484e-05
     -8.079000250912e-17
      1.303579049482e-05
      7.619905161365e-04
     -7.974873341993e-04
     -4.166276359926e-06
      1.570399084209e-17
      4.166276359872e-06
      7.974873341992e-04
     -7.707950478230e-04
     -1.376098154536e-05
      8.258571235729e-18
      1.376098154533e-05
      7.707950478231e-04
     -6.795705633680e-04
     -4.353771270756e-05
     -2.134014807312e-16
      4.353771270747e-05
      6.795705633680e-04
     -5.057874847292e-04
     -1.011857061581e-04
      8.604160678209e-17
      1.011857061581e-04
      5.057874847293e-04
      2.123462709660e-03
      6.237739695586e-04
      3.556267829047e-17
     -6.237739695586e-04
     -2.123462709660e-03
      1.846796918100e-03
      5.954043626545e-04
      3.713392440763e-17
     -5.954043626545e-04
     -1.846796918100e-03
      4.535016600556e-04
      1.930809739316e-04
     -1.889561098735e-16
     -1.930809739317e-04
     -4.535016600555e-04
SCALARS eps21 double
LOOKUP_TABLE default
     -5.045352659440e-04
     -8.456304654075e-05
      1.757593365553e-17
      8.456304654068e-05
      5.045352659440e-04
     -6.651420224943e-04
     -3.955544139676e-05
     -4.548566926756e-18
      3.955544139670e-05
      6.651420224943e-04
     -7.619905161365e-04
     -1.303579049484e-05
     -8.079000250912e-17
      1.303579049482e-05
      7.619905161365e-04
     -7.974873341993e-04
     -4.166276359926e-06
      1.570399084209e-17
      4.166276359872e-06
      7.974873341992e-04
     -7.707950478230e-04
     -1.376098154536e-05
      8.258571235729e-18
      1.376098154533e-05
      7.707950478231e-04
     -6.795705633680e-04
     -4.353771270756e-05
     -2.134014807312e-16
      4.353771270747e-05
      6.795705633680e-04
     -5.057874847292e-04
     -1.011857061581e-04
      8.604160678209e-17
      1.011857061581e-04
      5.057874847293e-04
      2.123462709660e-03
      6.237739695586e-04
      3.556267829047e-17
     -6.237739695586e-04
     -2.123462709660e-03
      1.846796918100e-03
      5.954043626545e-04
      3.713392440763e-17
     -5.954043626545e-04
     -1.846796918100e-03
      4.535016600556e-04
      1.930809739316e-04
     -1.889561098735e-16
     -1.930809739317e-04
     -4.535016600555e-04
SCALARS eps22 double
LOOKUP_TABLE default
     -2.124694147616e-02
     -2.160637776459e-02
     -2.143621866135e-02
     -2.160637776459e-02
     -2.124694147616e-02
     -2.137653104170e-02
     -2.144921678060e-02
     -2.149136149825e-02
     -2.144921678060e-02
     -2.137653104170e-02
     -2.150459635683e-02
     -2.129625161132e-02
     -2.154116120657e-02
     -2.129625161132e-02
     -2.150459635683e-02
     -2.163474025325e-02
     -2.114000359993e-02
     -2.159336943649e-02
     -2.114000359993e-02
     -2.163474025325e-02
     -2.177065081510e-02
     -2.097282098598e-02
     -2.165591354070e-02
     -2.097282098598e-02
     -2.177065081510e-02
     -2.190354040292e-02
     -2.079387307106e-02
     -2.173044955170e-02
     -2.079387307106e-02
     -2.190354040292e-02
     -2.213672023291e-02
     -2.054052760017e-02
     -2.187626469271e-02
     -2.054052760017e-02
     -2.213672023291e-02
     -2.167203728503e-02
     -2.063736794161e-02
     -2.170139157216e-02
     -2.063736794161e-02
     -2.167203728503e-02
     -2.023517189474e-02
     -2.124348704263e-02
     -2.105796901237e-02
     -2.124348704263e-02
     -2.023517189474e-02
     -1.964952310675e-02
     -2.136493088775e-02
     -2.086074340211e-02
     -2.136493088775e-02
     -1.964952310675e-02
SCALARS sig11 double
LOOKUP_TABLE default
      1.141699508441e+04
      1.166029362854e+04
      1.153773026640e+04
      1.166029362854e+04
      1.141699508441e+04
      1.146136439952e+04
      1.162674660788e+04
      1.151608567751e+04
      1.162674660788e+04
      1.146136439952e+04
      1.150439617477e+04
      1.159547151709e+04
      1.149257230859e+04
      1.159547151709e+04
      1.150439617477e+04
      1.154690141436e+04
      1.156512397874e+04
      1.146825690612e+04
      1.156512397874e+04
      1.154690141436e+04
      1.158968675582e+04
      1.153436455625e+04
      1.144420506817e+04
      1.153436455625e+04
      1.158968675582e+04
      1.163510651510e+04
      1.150093542212e+04
      1.142235378040e+04
      1.150093542212e+04
      1.163510651510e+04
      1.167202507379e+04
      1.146986401792e+04
      1.139787969617e+04
      1.146986401792e+04
      1.167202507379e+04
      1.154783897680e+04
      1.144232624080e+04
      1.138190751555e+04
      1.144232624080e+04
      1.154783897680e+04
      1.080321330012e+04
      1.151106768148e+04
      1.131315677242e+04
      1.151106768148e+04
      1.080321330012e+04
      1.061755355543e+04
      1.149734261220e+04
      1.128978470406e+04
      1.149734261220e+04
      1.061755355543e+04
SCALARS sig12 double
LOOKUP_TABLE default
     -8.150185065250e+01
     -1.366018444120e+01
      2.839950496991e-12
      1.366018444119e+01
      8.150185065250e+01
     -1.074460190183e+02
     -6.389725148707e+00
     -7.349676423019e-13
      6.389725148698e+00
      1.074460190183e+02
     -1.230907756836e+02
     -2.105781541474e+00
     -1.305067165447e-11
      2.105781541471e+00
      1.230907756836e+02
     -1.288248770630e+02
     -6.730138735265e-01
      2.537969834293e-12
      6.730138735178e-01
      1.288248770629e+02
     -1.245130461868e+02
     -2.222927788097e+00
      1.331157406526e-12
      2.222927788092e+00
      1.245130461868e+02
     -1.097767833133e+02
     -7.033015129682e+00
     -3.447464536066e-11
      7.033015129669e+00
      1.097767833133e+02
     -8.170413214857e+01
     -1.634538330246e+01
      1.390221271436e-11
      1.634538330246e+01
      8.170413214857e+01
      3.430208992528e+02
      1.007634873902e+02
      5.737077479751e-12
     -1.007634873902e+02
     -3.430208992528e+02
      2.983287329239e+02
      9.618070473650e+01
      6.004086117173e-12
     -9.618070473650e+01
     -2.983287329239e+02
      7.325796047053e+01
      3.119000348126e+01
     -3.052225139299e-11
     -3.119000348128e+01
     -7.325796047051e+01
SCALARS sig21 double
LOOKUP_TABLE default
     -8.150185065250e+01
     -1.366018444120e+01
      2.839950496991e-12
      1.366018444119e+01
      8.150185065250e+01
     -1.074460190183e+02
     -6.389725148707e+00
     -7.349676423019e-13
      6.389725148698e+00
      1.074460190183e+02
     -1.230907756836e+02
     -2.105781541474e+00
     -1.305067165447e-11
      2.105781541471e+00
      1.230907756836e+02
     -1.288248770630e+02
     -6.730138735265e-01
      2.537969834293e-12
      6.730138735178e-01
      1.288248770629e+02
     -1.245130461868e+02
     -2.222927788097e+00
      1.331157406526e-12
      2.222927788092e+00
      1.245130461868e+02
     -1.097767833133e+02
     -7.033015129682e+00
     -3.447464536066e-11
      7.033015129669e+00
      1.097767833133e+02
     -8.170413214857e+01
     -1.634538330246e+01
      1.390221271436e-11
      1.634538330246e+01
      8.170413214857e+01
      3.430208992528e+02
      1.007634873902e+02
      5.737077479751e-12
     -1.007634873902e+02
     -3.430208992528e+02
      2.983287329239e+02
      9.618070473650e+01
      6.004086117173e-12
     -9.618070473650e+01
     -2.983287329239e+02
      7.325796047053e+01
      3.119000348126e+01
     -3.052225139299e-11
     -3.119000348128e+01
     -7.325796047051e+01
SCALARS sig22 double
LOOKUP_TABLE default
     -1.014244733379e+01
      1.118152150332e+01
     -2.078148339028e+00
      1.118152150331e+01
     -1.014244733380e+01
     -2.103231092775e+01
      3.307214631355e+01
     -2.407967077159e+01
      3.307214631355e+01
     -2.103231092775e+01
     -3.214365579579e+01
      5.496819042700e+01
     -4.564906926241e+01
      5.496819042700e+01
     -3.214365579580e+01
     -4.396033141162e+01
      7.801933595959e+01
     -6.811800909593e+01
      7.801933595959e+01
     -4.396033141162e+01
     -5.698773230837e+01
      1.034173295403e+02
     -9.285919446388e+01
      1.034173295403e+02
     -5.698773230837e+01
     -6.818894914491e+01
      1.303862304440e+02
     -1.194246499998e+02
      1.303862304440e+02
     -6.818894914491e+01
     -1.061774397070e+02
      1.755342537944e+02
     -1.635631911672e+02
      1.755342537944e+02
     -1.061774397070e+02
     -5.216552626864e+01
      1.413845782133e+02
     -1.300530759203e+02
      1.413845782133e+02
     -5.216552626865e+01
     -3.970649543634e+01
      3.097155694872e+01
     -1.103555093866e+01
      3.097155694872e+01
     -3.970649543633e+01
      1.587476285760e+01
     -2.936118319953e+00
      2.446145070159e+01
     -2.936118319939e+00
      1.587476285760e+01
