# vtk DataFile Version 3.0
truss_top_growth_BCTipp_C0_06.vtk
ASCII
DATASET UNSTRUCTURED_GRID
FIELD FieldData 2
TIME 1 1 double
1.000000e+00
CYCLE 1 1 int
6
POINTS 72 double
      0.000000000000e+00       0.000000000000e+00       0.000000000000e+00
      4.000000000000e+00       0.000000000000e+00       0.000000000000e+00
      8.000000000000e+00       0.000000000000e+00       0.000000000000e+00
      1.200000000000e+01       0.000000000000e+00       0.000000000000e+00
      1.600000000000e+01       0.000000000000e+00       0.000000000000e+00
      2.000000000000e+01       0.000000000000e+00       0.000000000000e+00
      0.000000000000e+00       2.000000000000e-01       0.000000000000e+00
      4.000000000000e+00       2.000000000000e-01       0.000000000000e+00
      8.000000000000e+00       2.000000000000e-01       0.000000000000e+00
      1.200000000000e+01       2.000000000000e-01       0.000000000000e+00
      1.600000000000e+01       2.000000000000e-01       0.000000000000e+00
      2.000000000000e+01       2.000000000000e-01       0.000000000000e+00
      0.000000000000e+00       4.000000000000e-01       0.000000000000e+00
      4.000000000000e+00       4.000000000000e-01       0.000000000000e+00
      8.000000000000e+00       4.000000000000e-01       0.000000000000e+00
      1.200000000000e+01       4.000000000000e-01       0.000000000000e+00
      1.600000000000e+01       4.000000000000e-01       0.000000000000e+00
      2.000000000000e+01       4.000000000000e-01       0.000000000000e+00
      0.000000000000e+00       6.000000000000e-01       0.000000000000e+00
      4.000000000000e+00       6.000000000000e-01       0.000000000000e+00
      8.000000000000e+00       6.000000000000e-01       0.000000000000e+00
      1.200000000000e+01       6.000000000000e-01       0.000000000000e+00
      1.600000000000e+01       6.000000000000e-01       0.000000000000e+00
      2.000000000000e+01       6.000000000000e-01       0.000000000000e+00
      0.000000000000e+00       8.000000000000e-01       0.000000000000e+00
      4.000000000000e+00       8.000000000000e-01       0.000000000000e+00
      8.000000000000e+00       8.000000000000e-01       0.000000000000e+00
      1.200000000000e+01       8.000000000000e-01       0.000000000000e+00
      1.600000000000e+01       8.000000000000e-01       0.000000000000e+00
      2.000000000000e+01       8.000000000000e-01       0.000000000000e+00
      0.000000000000e+00       1.000000000000e+00       0.000000000000e+00
      4.000000000000e+00       1.000000000000e+00       0.000000000000e+00
      8.000000000000e+00       1.000000000000e+00       0.000000000000e+00
      1.200000000000e+01       1.000000000000e+00       0.000000000000e+00
      1.600000000000e+01       1.000000000000e+00       0.000000000000e+00
      2.000000000000e+01       1.000000000000e+00       0.000000000000e+00
      0.000000000000e+00       1.000000000000e+00       0.000000000000e+00
      4.000000000000e+00       1.000000000000e+00       0.000000000000e+00
      8.000000000000e+00       1.000000000000e+00       0.000000000000e+00
      1.200000000000e+01       1.000000000000e+00       0.000000000000e+00
      1.600000000000e+01       1.000000000000e+00       0.000000000000e+00
      2.000000000000e+01       1.000000000000e+00       0.000000000000e+00
      0.000000000000e+00       1.200000000000e+00       0.000000000000e+00
      4.000000000000e+00       1.200000000000e+00       0.000000000000e+00
      8.000000000000e+00       1.200000000000e+00       0.000000000000e+00
      1.200000000000e+01       1.200000000000e+00       0.000000000000e+00
      1.600000000000e+01       1.200000000000e+00       0.000000000000e+00
      2.000000000000e+01       1.200000000000e+00       0.000000000000e+00
      0.000000000000e+00       1.400000000000e+00       0.000000000000e+00
      4.000000000000e+00       1.400000000000e+00       0.000000000000e+00
      8.000000000000e+00       1.400000000000e+00       0.000000000000e+00
      1.200000000000e+01       1.400000000000e+00       0.000000000000e+00
      1.600000000000e+01       1.400000000000e+00       0.000000000000e+00
      2.000000000000e+01       1.400000000000e+00       0.000000000000e+00
      0.000000000000e+00       1.600000000000e+00       0.000000000000e+00
      4.000000000000e+00       1.600000000000e+00       0.000000000000e+00
      8.000000000000e+00       1.600000000000e+00       0.000000000000e+00
      1.200000000000e+01       1.600000000000e+00       0.000000000000e+00
      1.600000000000e+01       1.600000000000e+00       0.000000000000e+00
      2.000000000000e+01       1.600000000000e+00       0.000000000000e+00
      0.000000000000e+00       1.800000000000e+00       0.000000000000e+00
      4.000000000000e+00       1.800000000000e+00       0.000000000000e+00
      8.000000000000e+00       1.800000000000e+00       0.000000000000e+00
      1.200000000000e+01       1.800000000000e+00       0.000000000000e+00
      1.600000000000e+01       1.800000000000e+00       0.000000000000e+00
      2.000000000000e+01       1.800000000000e+00       0.000000000000e+00
      0.000000000000e+00       2.000000000000e+00       0.000000000000e+00
      4.000000000000e+00       2.000000000000e+00       0.000000000000e+00
      8.000000000000e+00       2.000000000000e+00       0.000000000000e+00
      1.200000000000e+01       2.000000000000e+00       0.000000000000e+00
      1.600000000000e+01       2.000000000000e+00       0.000000000000e+00
      2.000000000000e+01       2.000000000000e+00       0.000000000000e+00
CELLS 50 250
4         0        1        7        6
4         1        2        8        7
4         2        3        9        8
4         3        4       10        9
4         4        5       11       10
4         6        7       13       12
4         7        8       14       13
4         8        9       15       14
4         9       10       16       15
4        10       11       17       16
4        12       13       19       18
4        13       14       20       19
4        14       15       21       20
4        15       16       22       21
4        16       17       23       22
4        18       19       25       24
4        19       20       26       25
4        20       21       27       26
4        21       22       28       27
4        22       23       29       28
4        24       25       31       30
4        25       26       32       31
4        26       27       33       32
4        27       28       34       33
4        28       29       35       34
4        36       37       43       42
4        37       38       44       43
4        38       39       45       44
4        39       40       46       45
4        40       41       47       46
4        42       43       49       48
4        43       44       50       49
4        44       45       51       50
4        45       46       52       51
4        46       47       53       52
4        48       49       55       54
4        49       50       56       55
4        50       51       57       56
4        51       52       58       57
4        52       53       59       58
4        54       55       61       60
4        55       56       62       61
4        56       57       63       62
4        57       58       64       63
4        58       59       65       64
4        60       61       67       66
4        61       62       68       67
4        62       63       69       68
4        63       64       70       69
4        64       65       71       70
CELL_TYPES 50
9
9
9
9
9
9
9
9
9
9
9
9
9
9
9
9
9
9
9
9
9
9
9
9
9
9
9
9
9
9
9
9
9
9
9
9
9
9
9
9
9
9
9
9
9
9
9
9
9
9
POINT_DATA 72
VECTORS DSPL double
      0.000000000000e+00       0.000000000000e+00       0.000000000000e+00
      2.000000000001e-01       1.553054559955e-13       0.000000000000e+00
      4.000000000001e-01       4.718933577230e-13       0.000000000000e+00
      6.000000000001e-01       7.829813186699e-13       0.000000000000e+00
      8.000000000000e-01       9.918628418593e-13       0.000000000000e+00
      1.000000000000e+00       1.068367616597e-12       0.000000000000e+00
      0.000000000000e+00      -4.285714285715e-03       0.000000000000e+00
      2.000000000001e-01      -4.285714285560e-03       0.000000000000e+00
      4.000000000001e-01      -4.285714285242e-03       0.000000000000e+00
      6.000000000001e-01      -4.285714284931e-03       0.000000000000e+00
      8.000000000000e-01      -4.285714284722e-03       0.000000000000e+00
      1.000000000000e+00      -4.285714284645e-03       0.000000000000e+00
      0.000000000000e+00      -8.571428571430e-03       0.000000000000e+00
      2.000000000000e-01      -8.571428571275e-03       0.000000000000e+00
      4.000000000001e-01      -8.571428570957e-03       0.000000000000e+00
      6.000000000000e-01      -8.571428570645e-03       0.000000000000e+00
      8.000000000000e-01      -8.571428570436e-03       0.000000000000e+00
      1.000000000000e+00      -8.571428570359e-03       0.000000000000e+00
      0.000000000000e+00      -1.285714285715e-02       0.000000000000e+00
      2.000000000000e-01      -1.285714285699e-02       0.000000000000e+00
      4.000000000000e-01      -1.285714285667e-02       0.000000000000e+00
      6.000000000000e-01      -1.285714285636e-02       0.000000000000e+00
      8.000000000000e-01      -1.285714285615e-02       0.000000000000e+00
      1.000000000000e+00      -1.285714285607e-02       0.000000000000e+00
      0.000000000000e+00      -1.714285714286e-02       0.000000000000e+00
      2.000000000000e-01      -1.714285714270e-02       0.000000000000e+00
      4.000000000000e-01      -1.714285714239e-02       0.000000000000e+00
      6.000000000000e-01      -1.714285714207e-02       0.000000000000e+00
      8.000000000000e-01      -1.714285714186e-02       0.000000000000e+00
      1.000000000000e+00      -1.714285714179e-02       0.000000000000e+00
      0.000000000000e+00      -2.142857142857e-02       0.000000000000e+00
      2.000000000000e-01      -2.142857142842e-02       0.000000000000e+00
      4.000000000000e-01      -2.142857142810e-02       0.000000000000e+00
      6.000000000000e-01      -2.142857142779e-02       0.000000000000e+00
      8.000000000000e-01      -2.142857142758e-02       0.000000000000e+00
      1.000000000000e+00      -2.142857142750e-02       0.000000000000e+00
      0.000000000000e+00      -2.142857142857e-02       0.000000000000e+00
      2.000000000000e-01      -2.142857142842e-02       0.000000000000e+00
      4.000000000000e-01      -2.142857142810e-02       0.000000000000e+00
      6.000000000000e-01      -2.142857142779e-02       0.000000000000e+00
      8.000000000000e-01      -2.142857142758e-02       0.000000000000e+00
      1.000000000000e+00      -2.142857142750e-02       0.000000000000e+00
      0.000000000000e+00      -2.571428571429e-02       0.000000000000e+00
      2.000000000000e-01      -2.571428571413e-02       0.000000000000e+00
      4.000000000000e-01      -2.571428571381e-02       0.000000000000e+00
      6.000000000000e-01      -2.571428571350e-02       0.000000000000e+00
      8.000000000000e-01      -2.571428571329e-02       0.000000000000e+00
      1.000000000000e+00      -2.571428571321e-02       0.000000000000e+00
      0.000000000000e+00      -3.000000000000e-02       0.000000000000e+00
      2.000000000000e-01      -2.999999999985e-02       0.000000000000e+00
      4.000000000000e-01      -2.999999999953e-02       0.000000000000e+00
      6.000000000000e-01      -2.999999999922e-02       0.000000000000e+00
      8.000000000000e-01      -2.999999999901e-02       0.000000000000e+00
      1.000000000000e+00      -2.999999999893e-02       0.000000000000e+00
      0.000000000000e+00      -3.428571428571e-02       0.000000000000e+00
      2.000000000000e-01      -3.428571428556e-02       0.000000000000e+00
      4.000000000000e-01      -3.428571428524e-02       0.000000000000e+00
      6.000000000000e-01      -3.428571428493e-02       0.000000000000e+00
      8.000000000000e-01      -3.428571428472e-02       0.000000000000e+00
      1.000000000000e+00      -3.428571428464e-02       0.000000000000e+00
      0.000000000000e+00      -3.857142857143e-02       0.000000000000e+00
      1.999999999999e-01      -3.857142857127e-02       0.000000000000e+00
      3.999999999999e-01      -3.857142857096e-02       0.000000000000e+00
      5.999999999999e-01      -3.857142857065e-02       0.000000000000e+00
      8.000000000000e-01      -3.857142857044e-02       0.000000000000e+00
      1.000000000000e+00      -3.857142857036e-02       0.000000000000e+00
      0.000000000000e+00      -4.285714285714e-02       0.000000000000e+00
      1.999999999999e-01      -4.285714285699e-02       0.000000000000e+00
      3.999999999999e-01      -4.285714285667e-02       0.000000000000e+00
      5.999999999999e-01      -4.285714285636e-02       0.000000000000e+00
      8.000000000000e-01      -4.285714285615e-02       0.000000000000e+00
      1.000000000000e+00      -4.285714285607e-02       0.000000000000e+00
CELL_DATA 50
SCALARS eps11 double
LOOKUP_TABLE default
      5.000000000001e-02
      5.000000000000e-02
      5.000000000000e-02
      4.999999999999e-02
      4.999999999999e-02
      5.000000000001e-02
      5.000000000000e-02
      5.000000000000e-02
      4.999999999999e-02
      4.999999999999e-02
      5.000000000001e-02
      5.000000000000e-02
      5.000000000000e-02
      5.000000000000e-02
      5.000000000000e-02
      5.000000000000e-02
      5.000000000000e-02
      5.000000000000e-02
      5.000000000000e-02
      5.000000000000e-02
      5.000000000000e-02
      5.000000000000e-02
      5.000000000000e-02
      5.000000000000e-02
      5.000000000000e-02
      5.000000000000e-02
      5.000000000000e-02
      5.000000000000e-02
      5.000000000000e-02
      5.000000000000e-02
      5.000000000000e-02
      5.000000000000e-02
      5.000000000000e-02
      5.000000000000e-02
      5.000000000000e-02
      4.999999999999e-02
      5.000000000000e-02
      5.000000000000e-02
      5.000000000000e-02
      5.000000000000e-02
      4.999999999999e-02
      5.000000000000e-02
      5.000000000000e-02
      5.000000000001e-02
      5.000000000001e-02
      4.999999999999e-02
      5.000000000000e-02
      5.000000000000e-02
      5.000000000001e-02
      5.000000000001e-02
SCALARS eps12 double
LOOKUP_TABLE default
      6.109199721083e-16
      4.124705993063e-16
      8.936762282164e-17
      3.873425198930e-17
      9.441706856454e-17
      1.183108092154e-15
      8.773736674249e-16
      4.643378500915e-16
      1.529972848615e-16
     -6.988662383514e-17
      1.601441571177e-15
      1.285821636679e-15
      8.388331389293e-16
      2.882485942033e-16
      2.677436206162e-16
      1.834241800466e-15
      1.613219352550e-15
      9.608659167940e-16
      2.877682206431e-16
      2.359744852591e-16
      1.967279759777e-15
      1.760469042409e-15
      1.106039528899e-15
      5.001848138149e-16
      3.826551807351e-16
      1.896440700332e-15
      1.784252033502e-15
      1.097919871066e-15
      3.957117701006e-16
      3.969789313897e-16
      1.784414663827e-15
      1.684965796040e-15
      1.001813818805e-15
      4.332022953790e-16
      2.632099826451e-16
      1.477655752749e-15
      1.300536928313e-15
      7.537873252558e-16
      3.146896805639e-16
      2.660081559864e-16
      1.021254071977e-15
      8.532001941433e-16
      6.878695272346e-16
      2.376147645615e-16
     -1.776566903571e-17
      4.260999241163e-16
      2.710700248792e-16
      1.908424522470e-16
      1.216805180378e-16
      2.214787869163e-16
SCALARS eps21 double
LOOKUP_TABLE default
      6.109199721083e-16
      4.124705993063e-16
      8.936762282164e-17
      3.873425198930e-17
      9.441706856454e-17
      1.183108092154e-15
      8.773736674249e-16
      4.643378500915e-16
      1.529972848615e-16
     -6.988662383514e-17
      1.601441571177e-15
      1.285821636679e-15
      8.388331389293e-16
      2.882485942033e-16
      2.677436206162e-16
      1.834241800466e-15
      1.613219352550e-15
      9.608659167940e-16
      2.877682206431e-16
      2.359744852591e-16
      1.967279759777e-15
      1.760469042409e-15
      1.106039528899e-15
      5.001848138149e-16
      3.826551807351e-16
      1.896440700332e-15
      1.784252033502e-15
      1.097919871066e-15
      3.957117701006e-16
      3.969789313897e-16
      1.784414663827e-15
      1.684965796040e-15
      1.001813818805e-15
      4.332022953790e-16
      2.632099826451e-16
      1.477655752749e-15
      1.300536928313e-15
      7.537873252558e-16
      3.146896805639e-16
      2.660081559864e-16
      1.021254071977e-15
      8.532001941433e-16
      6.878695272346e-16
      2.376147645615e-16
     -1.776566903571e-17
      4.260999241163e-16
      2.710700248792e-16
      1.908424522470e-16
      1.216805180378e-16
      2.214787869163e-16
SCALARS eps22 double
LOOKUP_TABLE default
     -2.142857142858e-02
     -2.142857142857e-02
     -2.142857142857e-02
     -2.142857142857e-02
     -2.142857142857e-02
     -2.142857142858e-02
     -2.142857142857e-02
     -2.142857142857e-02
     -2.142857142857e-02
     -2.142857142857e-02
     -2.142857142857e-02
     -2.142857142857e-02
     -2.142857142857e-02
     -2.142857142857e-02
     -2.142857142857e-02
     -2.142857142857e-02
     -2.142857142857e-02
     -2.142857142857e-02
     -2.142857142857e-02
     -2.142857142857e-02
     -2.142857142857e-02
     -2.142857142857e-02
     -2.142857142857e-02
     -2.142857142857e-02
     -2.142857142857e-02
     -2.142857142857e-02
     -2.142857142857e-02
     -2.142857142857e-02
     -2.142857142857e-02
     -2.142857142857e-02
     -2.142857142857e-02
     -2.142857142857e-02
     -2.142857142857e-02
     -2.142857142857e-02
     -2.142857142857e-02
     -2.142857142857e-02
     -2.142857142857e-02
     -2.142857142857e-02
     -2.142857142857e-02
     -2.142857142857e-02
     -2.142857142857e-02
     -2.142857142857e-02
     -2.142857142857e-02
     -2.142857142857e-02
     -2.142857142857e-02
     -2.142857142857e-02
     -2.142857142857e-02
     -2.142857142857e-02
     -2.142857142857e-02
     -2.142857142857e-02
SCALARS sig11 double
LOOKUP_TABLE default
      1.153846153846e+04
      1.153846153846e+04
      1.153846153846e+04
      1.153846153846e+04
      1.153846153846e+04
      1.153846153846e+04
      1.153846153846e+04
      1.153846153846e+04
      1.153846153846e+04
      1.153846153846e+04
      1.153846153846e+04
      1.153846153846e+04
      1.153846153846e+04
      1.153846153846e+04
      1.153846153846e+04
      1.153846153846e+04
      1.153846153846e+04
      1.153846153846e+04
      1.153846153846e+04
      1.153846153846e+04
      1.153846153846e+04
      1.153846153846e+04
      1.153846153846e+04
      1.153846153846e+04
      1.153846153846e+04
      1.153846153846e+04
      1.153846153846e+04
      1.153846153846e+04
      1.153846153846e+04
      1.153846153846e+04
      1.153846153846e+04
      1.153846153846e+04
      1.153846153846e+04
      1.153846153846e+04
      1.153846153846e+04
      1.153846153846e+04
      1.153846153846e+04
      1.153846153846e+04
      1.153846153846e+04
      1.153846153846e+04
      1.153846153846e+04
      1.153846153846e+04
      1.153846153846e+04
      1.153846153846e+04
      1.153846153846e+04
      1.153846153846e+04
      1.153846153846e+04
      1.153846153846e+04
      1.153846153846e+04
      1.153846153846e+04
SCALARS sig12 double
LOOKUP_TABLE default
      9.868707241750e-11
      6.662986604179e-11
      1.443630830196e-11
      6.257071475195e-12
      1.525198799889e-11
      1.911174610403e-10
      1.417295924302e-10
      7.500842193786e-11
      2.471494601609e-11
     -1.128937769645e-11
      2.586944076517e-10
      2.077096490019e-10
      1.355038147501e-10
      4.656323444823e-11
      4.325089256107e-11
      2.963005985368e-10
      2.605969723350e-10
      1.552168019437e-10
      4.648563564235e-11
      3.811895531109e-11
      3.177913458102e-10
      2.843834606968e-10
      1.786679238990e-10
      8.079908530856e-11
      6.181352919567e-11
      3.063481131306e-10
      2.882253284887e-10
      1.773562868646e-10
      6.392267055471e-11
      6.412736583987e-11
      2.882515995414e-10
      2.721867824372e-10
      1.618314630377e-10
      6.997883233045e-11
      4.251853565806e-11
      2.386982369825e-10
      2.100867345737e-10
      1.217656448490e-10
      5.083448686033e-11
      4.297054827472e-11
      1.649718116271e-10
      1.378246467462e-10
      1.111173851687e-10
      3.838392350608e-11
     -2.869838844230e-12
      6.883152620340e-11
      4.378823478817e-11
      3.082839613221e-11
      1.965608368303e-11
      3.577734250186e-11
SCALARS sig21 double
LOOKUP_TABLE default
      9.868707241750e-11
      6.662986604179e-11
      1.443630830196e-11
      6.257071475195e-12
      1.525198799889e-11
      1.911174610403e-10
      1.417295924302e-10
      7.500842193786e-11
      2.471494601609e-11
     -1.128937769645e-11
      2.586944076517e-10
      2.077096490019e-10
      1.355038147501e-10
      4.656323444823e-11
      4.325089256107e-11
      2.963005985368e-10
      2.605969723350e-10
      1.552168019437e-10
      4.648563564235e-11
      3.811895531109e-11
      3.177913458102e-10
      2.843834606968e-10
      1.786679238990e-10
      8.079908530856e-11
      6.181352919567e-11
      3.063481131306e-10
      2.882253284887e-10
      1.773562868646e-10
      6.392267055471e-11
      6.412736583987e-11
      2.882515995414e-10
      2.721867824372e-10
      1.618314630377e-10
      6.997883233045e-11
      4.251853565806e-11
      2.386982369825e-10
      2.100867345737e-10
      1.217656448490e-10
      5.083448686033e-11
      4.297054827472e-11
      1.649718116271e-10
      1.378246467462e-10
      1.111173851687e-10
      3.838392350608e-11
     -2.869838844230e-12
      6.883152620340e-11
      4.378823478817e-11
      3.082839613221e-11
      1.965608368303e-11
      3.577734250186e-11
SCALARS sig22 double
LOOKUP_TABLE default
      8.549250196666e-11
      2.182787284255e-11
      9.549694368616e-12
      2.137312549166e-11
      4.092726157978e-12
      8.253664418589e-11
      4.320099833421e-12
      1.273292582482e-11
      2.933120413218e-11
      4.001776687801e-11
      7.730704965070e-11
      1.182343112305e-11
      5.684341886081e-12
      3.387867764104e-11
      4.820321919397e-11
      6.775735528208e-11
      2.069100446533e-11
      8.640199666843e-12
      6.639311322942e-11
      4.456524038687e-11
      6.434675015043e-11
     -1.068656274583e-11
      3.183231456205e-12
      5.456968210638e-11
      3.456079866737e-11
      3.728928277269e-11
      1.750777300913e-11
     -6.593836587854e-12
      4.183675628155e-11
      2.955857780762e-12
      1.341504685115e-11
      2.046363078989e-11
     -1.659827830736e-11
      5.115907697473e-11
      4.547473508865e-12
      6.366462912410e-12
      3.365130396560e-11
     -5.684341886081e-12
      6.411937647499e-11
     -6.593836587854e-12
      1.250555214938e-11
      2.819433575496e-11
      3.456079866737e-11
      4.547473508865e-11
      7.730704965070e-12
      1.978150976356e-11
     -5.911715561524e-12
      5.502442945726e-11
      2.955857780762e-11
      4.547473508865e-12
