# vtk DataFile Version 3.0
truss_top_growth_BCTipp_C0_05.vtk
ASCII
DATASET UNSTRUCTURED_GRID
FIELD FieldData 2
TIME 1 1 double
8.000000e-01
CYCLE 1 1 int
5
POINTS 72 double
      0.000000000000e+00       0.000000000000e+00       0.000000000000e+00
      4.000000000000e+00       0.000000000000e+00       0.000000000000e+00
      8.000000000000e+00       0.000000000000e+00       0.000000000000e+00
      1.200000000000e+01       0.000000000000e+00       0.000000000000e+00
      1.600000000000e+01       0.000000000000e+00       0.000000000000e+00
      2.000000000000e+01       0.000000000000e+00       0.000000000000e+00
      0.000000000000e+00       2.000000000000e-01       0.000000000000e+00
      4.000000000000e+00       2.000000000000e-01       0.000000000000e+00
      8.000000000000e+00       2.000000000000e-01       0.000000000000e+00
      1.200000000000e+01       2.000000000000e-01       0.000000000000e+00
      1.600000000000e+01       2.000000000000e-01       0.000000000000e+00
      2.000000000000e+01       2.000000000000e-01       0.000000000000e+00
      0.000000000000e+00       4.000000000000e-01       0.000000000000e+00
      4.000000000000e+00       4.000000000000e-01       0.000000000000e+00
      8.000000000000e+00       4.000000000000e-01       0.000000000000e+00
      1.200000000000e+01       4.000000000000e-01       0.000000000000e+00
      1.600000000000e+01       4.000000000000e-01       0.000000000000e+00
      2.000000000000e+01       4.000000000000e-01       0.000000000000e+00
      0.000000000000e+00       6.000000000000e-01       0.000000000000e+00
      4.000000000000e+00       6.000000000000e-01       0.000000000000e+00
      8.000000000000e+00       6.000000000000e-01       0.000000000000e+00
      1.200000000000e+01       6.000000000000e-01       0.000000000000e+00
      1.600000000000e+01       6.000000000000e-01       0.000000000000e+00
      2.000000000000e+01       6.000000000000e-01       0.000000000000e+00
      0.000000000000e+00       8.000000000000e-01       0.000000000000e+00
      4.000000000000e+00       8.000000000000e-01       0.000000000000e+00
      8.000000000000e+00       8.000000000000e-01       0.000000000000e+00
      1.200000000000e+01       8.000000000000e-01       0.000000000000e+00
      1.600000000000e+01       8.000000000000e-01       0.000000000000e+00
      2.000000000000e+01       8.000000000000e-01       0.000000000000e+00
      0.000000000000e+00       1.000000000000e+00       0.000000000000e+00
      4.000000000000e+00       1.000000000000e+00       0.000000000000e+00
      8.000000000000e+00       1.000000000000e+00       0.000000000000e+00
      1.200000000000e+01       1.000000000000e+00       0.000000000000e+00
      1.600000000000e+01       1.000000000000e+00       0.000000000000e+00
      2.000000000000e+01       1.000000000000e+00       0.000000000000e+00
      0.000000000000e+00       1.000000000000e+00       0.000000000000e+00
      4.000000000000e+00       1.000000000000e+00       0.000000000000e+00
      8.000000000000e+00       1.000000000000e+00       0.000000000000e+00
      1.200000000000e+01       1.000000000000e+00       0.000000000000e+00
      1.600000000000e+01       1.000000000000e+00       0.000000000000e+00
      2.000000000000e+01       1.000000000000e+00       0.000000000000e+00
      0.000000000000e+00       1.200000000000e+00       0.000000000000e+00
      4.000000000000e+00       1.200000000000e+00       0.000000000000e+00
      8.000000000000e+00       1.200000000000e+00       0.000000000000e+00
      1.200000000000e+01       1.200000000000e+00       0.000000000000e+00
      1.600000000000e+01       1.200000000000e+00       0.000000000000e+00
      2.000000000000e+01       1.200000000000e+00       0.000000000000e+00
      0.000000000000e+00       1.400000000000e+00       0.000000000000e+00
      4.000000000000e+00       1.400000000000e+00       0.000000000000e+00
      8.000000000000e+00       1.400000000000e+00       0.000000000000e+00
      1.200000000000e+01       1.400000000000e+00       0.000000000000e+00
      1.600000000000e+01       1.400000000000e+00       0.000000000000e+00
      2.000000000000e+01       1.400000000000e+00       0.000000000000e+00
      0.000000000000e+00       1.600000000000e+00       0.000000000000e+00
      4.000000000000e+00       1.600000000000e+00       0.000000000000e+00
      8.000000000000e+00       1.600000000000e+00       0.000000000000e+00
      1.200000000000e+01       1.600000000000e+00       0.000000000000e+00
      1.600000000000e+01       1.600000000000e+00       0.000000000000e+00
      2.000000000000e+01       1.600000000000e+00       0.000000000000e+00
      0.000000000000e+00       1.800000000000e+00       0.000000000000e+00
      4.000000000000e+00       1.800000000000e+00       0.000000000000e+00
      8.000000000000e+00       1.800000000000e+00       0.000000000000e+00
      1.200000000000e+01       1.800000000000e+00       0.000000000000e+00
      1.600000000000e+01       1.800000000000e+00       0.000000000000e+00
      2.000000000000e+01       1.800000000000e+00       0.000000000000e+00
      0.000000000000e+00       2.000000000000e+00       0.000000000000e+00
      4.000000000000e+00       2.000000000000e+00       0.000000000000e+00
      8.000000000000e+00       2.000000000000e+00       0.000000000000e+00
      1.200000000000e+01       2.000000000000e+00       0.000000000000e+00
      1.600000000000e+01       2.000000000000e+00       0.000000000000e+00
      2.000000000000e+01       2.000000000000e+00       0.000000000000e+00
CELLS 50 250
4         0        1        7        6
4         1        2        8        7
4         2        3        9        8
4         3        4       10        9
4         4        5       11       10
4         6        7       13       12
4         7        8       14       13
4         8        9       15       14
4         9       10       16       15
4        10       11       17       16
4        12       13       19       18
4        13       14       20       19
4        14       15       21       20
4        15       16       22       21
4        16       17       23       22
4        18       19       25       24
4        19       20       26       25
4        20       21       27       26
4        21       22       28       27
4        22       23       29       28
4        24       25       31       30
4        25       26       32       31
4        26       27       33       32
4        27       28       34       33
4        28       29       35       34
4        36       37       43       42
4        37       38       44       43
4        38       39       45       44
4        39       40       46       45
4        40       41       47       46
4        42       43       49       48
4        43       44       50       49
4        44       45       51       50
4        45       46       52       51
4        46       47       53       52
4        48       49       55       54
4        49       50       56       55
4        50       51       57       56
4        51       52       58       57
4        52       53       59       58
4        54       55       61       60
4        55       56       62       61
4        56       57       63       62
4        57       58       64       63
4        58       59       65       64
4        60       61       67       66
4        61       62       68       67
4        62       63       69       68
4        63       64       70       69
4        64       65       71       70
CELL_TYPES 50
9
9
9
9
9
9
9
9
9
9
9
9
9
9
9
9
9
9
9
9
9
9
9
9
9
9
9
9
9
9
9
9
9
9
9
9
9
9
9
9
9
9
9
9
9
9
9
9
9
9
POINT_DATA 72
VECTORS DSPL double
      0.000000000000e+00       0.000000000000e+00       0.000000000000e+00
      1.969321422510e-01      -2.259462553728e-02       0.000000000000e+00
      3.985439758735e-01      -3.784933499916e-02       0.000000000000e+00
      5.985103509316e-01      -4.910611038770e-02       0.000000000000e+00
      7.996094417406e-01      -5.569752783588e-02       0.000000000000e+00
      1.000000000000e+00      -5.613329438494e-02       0.000000000000e+00
      0.000000000000e+00      -3.988576959596e-03       0.000000000000e+00
      1.980267277348e-01      -2.693547674436e-02       0.000000000000e+00
      3.991237612940e-01      -4.213169012008e-02       0.000000000000e+00
      5.990065649788e-01      -5.340331733732e-02       0.000000000000e+00
      7.997687642385e-01      -6.000219581422e-02       0.000000000000e+00
      1.000000000000e+00      -6.041339855073e-02       0.000000000000e+00
      0.000000000000e+00      -7.969494126029e-03       0.000000000000e+00
      1.990945142946e-01      -3.128710651739e-02       0.000000000000e+00
      3.997203987587e-01      -4.640052380058e-02       0.000000000000e+00
      5.994902490620e-01      -5.769968218028e-02       0.000000000000e+00
      7.999353643847e-01      -6.430258566343e-02       0.000000000000e+00
      1.000000000000e+00      -6.466828055540e-02       0.000000000000e+00
      0.000000000000e+00      -1.192732421971e-02       0.000000000000e+00
      2.001511284000e-01      -3.565393350526e-02       0.000000000000e+00
      4.003243287502e-01      -5.065434924107e-02       0.000000000000e+00
      5.999682135913e-01      -6.199561546497e-02       0.000000000000e+00
      8.001052332573e-01      -6.859871038033e-02       0.000000000000e+00
      1.000000000000e+00      -6.889861946948e-02       0.000000000000e+00
      0.000000000000e+00      -1.585392690514e-02       0.000000000000e+00
      2.012120893005e-01      -4.003806030724e-02       0.000000000000e+00
      4.009261241493e-01      -5.489233529051e-02       0.000000000000e+00
      6.004471457108e-01      -6.629133451844e-02       0.000000000000e+00
      8.002744458440e-01      -7.289083102007e-02       0.000000000000e+00
      1.000000000000e+00      -7.310294765037e-02       0.000000000000e+00
      0.000000000000e+00      -1.974833999507e-02       0.000000000000e+00
      2.022931338322e-01      -4.443929467993e-02       0.000000000000e+00
      4.015160604269e-01      -5.911429758294e-02       0.000000000000e+00
      6.009339942122e-01      -7.058686678892e-02       0.000000000000e+00
      8.004389207537e-01      -7.717946252631e-02       0.000000000000e+00
      1.000000000000e+00      -7.727759748833e-02       0.000000000000e+00
      0.000000000000e+00      -1.974833999507e-02       0.000000000000e+00
      2.022931338322e-01      -4.443929467993e-02       0.000000000000e+00
      4.015160604269e-01      -5.911429758294e-02       0.000000000000e+00
      6.009339942122e-01      -7.058686678892e-02       0.000000000000e+00
      8.004389207537e-01      -7.717946252631e-02       0.000000000000e+00
      1.000000000000e+00      -7.727759748833e-02       0.000000000000e+00
      0.000000000000e+00      -2.361435327180e-02       0.000000000000e+00
      2.034102410603e-01      -4.885456932843e-02       0.000000000000e+00
      4.020839330587e-01      -6.332118355142e-02       0.000000000000e+00
      6.014361583878e-01      -7.488173589451e-02       0.000000000000e+00
      8.005942844117e-01      -8.146542024750e-02       0.000000000000e+00
      1.000000000000e+00      -8.141780076291e-02       0.000000000000e+00
      0.000000000000e+00      -2.748383500979e-02       0.000000000000e+00
      2.045824599251e-01      -5.328266484123e-02       0.000000000000e+00
      4.026170657678e-01      -6.751114710036e-02       0.000000000000e+00
      6.019629510396e-01      -7.917745316712e-02       0.000000000000e+00
      8.007351587800e-01      -8.574986368266e-02       0.000000000000e+00
      1.000000000000e+00      -8.550593925000e-02       0.000000000000e+00
      9.327099745786e-03      -3.124722322890e-02       0.000000000000e+00
      2.043636641916e-01      -5.768058569643e-02       0.000000000000e+00
      4.036913486770e-01      -7.171313958949e-02       0.000000000000e+00
      6.022582565350e-01      -8.345684657185e-02       0.000000000000e+00
      8.009585286236e-01      -9.003470361299e-02       0.000000000000e+00
      1.000000000000e+00      -8.959480192552e-02       0.000000000000e+00
      1.809306479776e-02      -3.474649482546e-02       0.000000000000e+00
      2.041722228893e-01      -6.199831175924e-02       0.000000000000e+00
      4.048189296473e-01      -7.595957031363e-02       0.000000000000e+00
      6.023837482420e-01      -8.770532864080e-02       0.000000000000e+00
      8.016444826867e-01      -9.431050247227e-02       0.000000000000e+00
      9.969641150771e-01      -9.372627579612e-02       0.000000000000e+00
      2.195620139007e-02      -3.807508281541e-02       0.000000000000e+00
      2.047276637266e-01      -6.629646897188e-02       0.000000000000e+00
      4.056754675366e-01      -8.021031108667e-02       0.000000000000e+00
      6.025704523010e-01      -9.194322402248e-02       0.000000000000e+00
      8.024677344238e-01      -9.859327548847e-02       0.000000000000e+00
      9.925765681551e-01      -9.758308299691e-02       0.000000000000e+00
CELL_DATA 50
SCALARS eps11 double
LOOKUP_TABLE default
      4.937058121937e-02
      5.033743348514e-02
      4.998193338461e-02
      5.023213323328e-02
      5.007791867760e-02
      4.964054940434e-02
      5.021472087517e-02
      4.995701995710e-02
      5.015061703095e-02
      5.003709273244e-02
      4.990577670508e-02
      5.009976010533e-02
      4.992682085450e-02
      5.007268965377e-02
      4.999495268133e-02
      5.017014972785e-02
      4.998629995413e-02
      4.989538008129e-02
      4.999568485623e-02
      4.995248538050e-02
      5.043756855835e-02
      4.986805557418e-02
      4.986677865810e-02
      4.991691070546e-02
      4.991068650392e-02
      5.071201276189e-02
      4.973854650565e-02
      4.984531868321e-02
      4.983350569966e-02
      4.987061634958e-02
      5.099770040465e-02
      4.959081186359e-02
      4.983574134791e-02
      4.974229749849e-02
      4.983344888536e-02
      5.040035336257e-02
      4.958750479095e-02
      4.977281484161e-02
      4.966997159103e-02
      4.979209710168e-02
      4.716696962075e-02
      5.007849942092e-02
      4.949204643326e-02
      4.973286428726e-02
      4.943709949131e-02
      4.634341864162e-02
      5.016002685639e-02
      4.931805081682e-02
      4.990384337858e-02
      4.809863673114e-02
SCALARS eps12 double
LOOKUP_TABLE default
     -4.990190669629e-04
     -1.188883358086e-04
      6.587055042798e-05
     -2.823179325857e-05
      9.522865356581e-05
     -6.766204079256e-04
     -5.274702771652e-05
      2.925695534338e-05
     -1.662556490238e-05
      1.011148258563e-04
     -7.806819307615e-04
     -1.623623938448e-05
      1.083284684446e-05
     -1.306822825260e-05
      1.103712604660e-04
     -8.143824807468e-04
     -7.742259792630e-06
      9.599261708425e-06
     -1.695276580183e-05
      1.226589915304e-04
     -7.761846783622e-04
     -2.883841612171e-05
      2.664409297955e-05
     -2.898541668179e-05
      1.387135617083e-04
     -6.620845629777e-04
     -8.281041974806e-05
      6.407210874927e-05
     -5.047613667197e-05
      1.598400041117e-04
     -4.478855087656e-04
     -1.844860311647e-04
      1.321851328949e-04
     -8.825672049314e-05
      1.920054529088e-04
      2.080683640048e-03
      8.301113491846e-04
     -4.144315220321e-04
      1.946856652910e-04
      1.796290831071e-05
      1.835612014930e-03
      6.692412316535e-04
     -1.826933511011e-04
     -1.804096638569e-04
     -7.179512652960e-04
      5.137386844668e-04
      6.186333113300e-05
      2.016859273848e-04
     -4.746705201152e-04
     -1.016546072170e-03
SCALARS eps21 double
LOOKUP_TABLE default
     -4.990190669629e-04
     -1.188883358086e-04
      6.587055042798e-05
     -2.823179325857e-05
      9.522865356581e-05
     -6.766204079256e-04
     -5.274702771652e-05
      2.925695534338e-05
     -1.662556490238e-05
      1.011148258563e-04
     -7.806819307615e-04
     -1.623623938448e-05
      1.083284684446e-05
     -1.306822825260e-05
      1.103712604660e-04
     -8.143824807468e-04
     -7.742259792630e-06
      9.599261708425e-06
     -1.695276580183e-05
      1.226589915304e-04
     -7.761846783622e-04
     -2.883841612171e-05
      2.664409297955e-05
     -2.898541668179e-05
      1.387135617083e-04
     -6.620845629777e-04
     -8.281041974806e-05
      6.407210874927e-05
     -5.047613667197e-05
      1.598400041117e-04
     -4.478855087656e-04
     -1.844860311647e-04
      1.321851328949e-04
     -8.825672049314e-05
      1.920054529088e-04
      2.080683640048e-03
      8.301113491846e-04
     -4.144315220321e-04
      1.946856652910e-04
      1.796290831071e-05
      1.835612014930e-03
      6.692412316535e-04
     -1.826933511011e-04
     -1.804096638569e-04
     -7.179512652960e-04
      5.137386844668e-04
      6.186333113300e-05
      2.016859273848e-04
     -4.746705201152e-04
     -1.016546072170e-03
SCALARS eps22 double
LOOKUP_TABLE default
     -2.120375436091e-02
     -2.152014048721e-02
     -2.142565724678e-02
     -2.153409424944e-02
     -2.145921079851e-02
     -2.134929783872e-02
     -2.141115205970e-02
     -2.146106350364e-02
     -2.146340799892e-02
     -2.145793574187e-02
     -2.149480197471e-02
     -2.130347050136e-02
     -2.149329955617e-02
     -2.139617260408e-02
     -2.145511250654e-02
     -2.164232406539e-02
     -2.119283583923e-02
     -2.152681424941e-02
     -2.132815725570e-02
     -2.145272573312e-02
     -2.179398389900e-02
     -2.107487088956e-02
     -2.156615546529e-02
     -2.125504933566e-02
     -2.145279755334e-02
     -2.194001094975e-02
     -2.094998544891e-02
     -2.161282726440e-02
     -2.117437292233e-02
     -2.145713251924e-02
     -2.217666986478e-02
     -2.077637569882e-02
     -2.169640260319e-02
     -2.106572418771e-02
     -2.147032497954e-02
     -2.174282469087e-02
     -2.085228219082e-02
     -2.162319150320e-02
     -2.105081856074e-02
     -2.146187444182e-02
     -2.037509196992e-02
     -2.131925231664e-02
     -2.126729939724e-02
     -2.125963036819e-02
     -2.121228859299e-02
     -1.982032302189e-02
     -2.146627300071e-02
     -2.109875314344e-02
     -2.137640571651e-02
     -2.066658536229e-02
SCALARS sig11 double
LOOKUP_TABLE default
      1.138776714329e+04
      1.162275744542e+04
      1.153370730960e+04
      1.159129932226e+04
      1.155677647173e+04
      1.144645192038e+04
      1.160127190171e+04
      1.152237487109e+04
      1.157681923003e+04
      1.154538976910e+04
      1.150380125238e+04
      1.158181941134e+04
      1.150993229533e+04
      1.156293558663e+04
      1.153381914662e+04
      1.156066460360e+04
      1.156314891420e+04
      1.149698379661e+04
      1.154940724376e+04
      1.152210313413e+04
      1.161788767777e+04
      1.154401404493e+04
      1.148413205467e+04
      1.153599570299e+04
      1.151027821195e+04
      1.167777920416e+04
      1.152253317894e+04
      1.147241101688e+04
      1.152219200720e+04
      1.149842548976e+04
      1.172986876539e+04
      1.150180322101e+04
      1.145957810412e+04
      1.150957136241e+04
      1.148632021623e+04
      1.161356536302e+04
      1.149167197356e+04
      1.145065907118e+04
      1.149093125876e+04
      1.147565420022e+04
      1.086521873105e+04
      1.157389715178e+04
      1.141440569935e+04
      1.148341218660e+04
      1.140553739205e+04
      1.069961959604e+04
      1.157913220932e+04
      1.138563850391e+04
      1.151759887791e+04
      1.109327831087e+04
SCALARS sig12 double
LOOKUP_TABLE default
     -8.061077235554e+01
     -1.920503886139e+01
      1.064062737683e+01
     -4.560520449461e+00
      1.538309019140e+01
     -1.093002197418e+02
     -8.520673708053e+00
      4.726123555469e+00
     -2.685668176538e+00
      1.633393340755e+01
     -1.261101580461e+02
     -2.622777131339e+00
      1.749921413336e+00
     -2.111021486958e+00
      1.782920361374e+01
     -1.315540930437e+02
     -1.250672735733e+00
      1.550649968284e+00
     -2.738523706449e+00
      1.981414478568e+01
     -1.253836788124e+02
     -4.658513373507e+00
      4.304045789004e+00
     -4.682259617828e+00
      2.240757535289e+01
     -1.069521217118e+02
     -1.337706780546e+01
      1.035010987488e+01
     -8.153837462395e+00
      2.582030835650e+01
     -7.235073603136e+01
     -2.980158964969e+01
      2.135298300610e+01
     -1.425685484889e+01
      3.101626546988e+01
      3.361104341615e+02
      1.340949102529e+02
     -6.694663048211e+01
      3.144922285469e+01
      2.901700573269e+00
      2.965219408732e+02
      1.081081989594e+02
     -2.951200287018e+01
     -2.914309954612e+01
     -1.159767428555e+02
      8.298855672156e+01
      9.993307336869e+00
      3.258003442369e+01
     -7.667754555708e+01
     -1.642112885813e+02
SCALARS sig21 double
LOOKUP_TABLE default
     -8.061077235554e+01
     -1.920503886139e+01
      1.064062737683e+01
     -4.560520449461e+00
      1.538309019140e+01
     -1.093002197418e+02
     -8.520673708053e+00
      4.726123555469e+00
     -2.685668176538e+00
      1.633393340755e+01
     -1.261101580461e+02
     -2.622777131339e+00
      1.749921413336e+00
     -2.111021486958e+00
      1.782920361374e+01
     -1.315540930437e+02
     -1.250672735733e+00
      1.550649968284e+00
     -2.738523706449e+00
      1.981414478568e+01
     -1.253836788124e+02
     -4.658513373507e+00
      4.304045789004e+00
     -4.682259617828e+00
      2.240757535289e+01
     -1.069521217118e+02
     -1.337706780546e+01
      1.035010987488e+01
     -8.153837462395e+00
      2.582030835650e+01
     -7.235073603136e+01
     -2.980158964969e+01
      2.135298300610e+01
     -1.425685484889e+01
      3.101626546988e+01
      3.361104341615e+02
      1.340949102529e+02
     -6.694663048211e+01
      3.144922285469e+01
      2.901700573269e+00
      2.965219408732e+02
      1.081081989594e+02
     -2.951200287018e+01
     -2.914309954612e+01
     -1.159767428555e+02
      8.298855672156e+01
      9.993307336869e+00
      3.258003442369e+01
     -7.667754555708e+01
     -1.642112885813e+02
SCALARS sig22 double
LOOKUP_TABLE default
     -1.270245044863e+01
      1.499549604452e+01
     -1.365023167566e+00
     -1.706655714171e+00
      7.786332858332e-01
     -2.113878811337e+01
      3.093858146129e+01
     -1.439245718761e+01
      8.399802131577e+00
     -3.807138291859e+00
     -3.013838050591e+01
      4.745139026168e+01
     -2.716407869921e+01
      1.796552959198e+01
     -8.114460648544e+00
     -3.981193222613e+01
      6.498082450733e+01
     -4.044759527460e+01
      2.786351798894e+01
     -1.258481499553e+01
     -5.028618072525e+01
      8.400284693834e+01
     -5.503422680425e+01
      3.898677327144e+01
     -1.766921268024e+01
     -5.831693387173e+01
      1.036164785903e+02
     -7.082794389321e+01
      5.168853749234e+01
     -2.374932750846e+01
     -9.060643198090e+01
      1.347959993848e+02
     -9.561438028892e+01
      7.135247463643e+01
     -3.198171579788e+01
     -4.033263022370e+01
      1.129371534230e+02
     -8.254195374673e+01
      6.680361885810e+01
     -3.460274142695e+01
     -4.542198744322e+01
      4.041417879208e+01
     -1.595016557500e+01
      1.539381918101e+01
     -7.056067725462e+00
      1.163055808370e+01
      8.729924708546e+00
      1.061632571800e+01
      3.097101007822e+00
     -1.494987345191e+01
