# vtk DataFile Version 3.0
truss_top_growth_BCTipp_06.vtk
ASCII
DATASET UNSTRUCTURED_GRID
FIELD FieldData 2
TIME 1 1 double
1.000000e+00
CYCLE 1 1 int
6
POINTS 72 double
      0.000000000000e+00       0.000000000000e+00       0.000000000000e+00
      4.000000000000e+00       0.000000000000e+00       0.000000000000e+00
      8.000000000000e+00       0.000000000000e+00       0.000000000000e+00
      1.200000000000e+01       0.000000000000e+00       0.000000000000e+00
      1.600000000000e+01       0.000000000000e+00       0.000000000000e+00
      2.000000000000e+01       0.000000000000e+00       0.000000000000e+00
      0.000000000000e+00       2.000000000000e-01       0.000000000000e+00
      4.000000000000e+00       2.000000000000e-01       0.000000000000e+00
      8.000000000000e+00       2.000000000000e-01       0.000000000000e+00
      1.200000000000e+01       2.000000000000e-01       0.000000000000e+00
      1.600000000000e+01       2.000000000000e-01       0.000000000000e+00
      2.000000000000e+01       2.000000000000e-01       0.000000000000e+00
      0.000000000000e+00       4.000000000000e-01       0.000000000000e+00
      4.000000000000e+00       4.000000000000e-01       0.000000000000e+00
      8.000000000000e+00       4.000000000000e-01       0.000000000000e+00
      1.200000000000e+01       4.000000000000e-01       0.000000000000e+00
      1.600000000000e+01       4.000000000000e-01       0.000000000000e+00
      2.000000000000e+01       4.000000000000e-01       0.000000000000e+00
      0.000000000000e+00       6.000000000000e-01       0.000000000000e+00
      4.000000000000e+00       6.000000000000e-01       0.000000000000e+00
      8.000000000000e+00       6.000000000000e-01       0.000000000000e+00
      1.200000000000e+01       6.000000000000e-01       0.000000000000e+00
      1.600000000000e+01       6.000000000000e-01       0.000000000000e+00
      2.000000000000e+01       6.000000000000e-01       0.000000000000e+00
      0.000000000000e+00       8.000000000000e-01       0.000000000000e+00
      4.000000000000e+00       8.000000000000e-01       0.000000000000e+00
      8.000000000000e+00       8.000000000000e-01       0.000000000000e+00
      1.200000000000e+01       8.000000000000e-01       0.000000000000e+00
      1.600000000000e+01       8.000000000000e-01       0.000000000000e+00
      2.000000000000e+01       8.000000000000e-01       0.000000000000e+00
      0.000000000000e+00       1.000000000000e+00       0.000000000000e+00
      4.000000000000e+00       1.000000000000e+00       0.000000000000e+00
      8.000000000000e+00       1.000000000000e+00       0.000000000000e+00
      1.200000000000e+01       1.000000000000e+00       0.000000000000e+00
      1.600000000000e+01       1.000000000000e+00       0.000000000000e+00
      2.000000000000e+01       1.000000000000e+00       0.000000000000e+00
      0.000000000000e+00       1.000000000000e+00       0.000000000000e+00
      4.000000000000e+00       1.000000000000e+00       0.000000000000e+00
      8.000000000000e+00       1.000000000000e+00       0.000000000000e+00
      1.200000000000e+01       1.000000000000e+00       0.000000000000e+00
      1.600000000000e+01       1.000000000000e+00       0.000000000000e+00
      2.000000000000e+01       1.000000000000e+00       0.000000000000e+00
      0.000000000000e+00       1.200000000000e+00       0.000000000000e+00
      4.000000000000e+00       1.200000000000e+00       0.000000000000e+00
      8.000000000000e+00       1.200000000000e+00       0.000000000000e+00
      1.200000000000e+01       1.200000000000e+00       0.000000000000e+00
      1.600000000000e+01       1.200000000000e+00       0.000000000000e+00
      2.000000000000e+01       1.200000000000e+00       0.000000000000e+00
      0.000000000000e+00       1.400000000000e+00       0.000000000000e+00
      4.000000000000e+00       1.400000000000e+00       0.000000000000e+00
      8.000000000000e+00       1.400000000000e+00       0.000000000000e+00
      1.200000000000e+01       1.400000000000e+00       0.000000000000e+00
      1.600000000000e+01       1.400000000000e+00       0.000000000000e+00
      2.000000000000e+01       1.400000000000e+00       0.000000000000e+00
      0.000000000000e+00       1.600000000000e+00       0.000000000000e+00
      4.000000000000e+00       1.600000000000e+00       0.000000000000e+00
      8.000000000000e+00       1.600000000000e+00       0.000000000000e+00
      1.200000000000e+01       1.600000000000e+00       0.000000000000e+00
      1.600000000000e+01       1.600000000000e+00       0.000000000000e+00
      2.000000000000e+01       1.600000000000e+00       0.000000000000e+00
      0.000000000000e+00       1.800000000000e+00       0.000000000000e+00
      4.000000000000e+00       1.800000000000e+00       0.000000000000e+00
      8.000000000000e+00       1.800000000000e+00       0.000000000000e+00
      1.200000000000e+01       1.800000000000e+00       0.000000000000e+00
      1.600000000000e+01       1.800000000000e+00       0.000000000000e+00
      2.000000000000e+01       1.800000000000e+00       0.000000000000e+00
      0.000000000000e+00       2.000000000000e+00       0.000000000000e+00
      4.000000000000e+00       2.000000000000e+00       0.000000000000e+00
      8.000000000000e+00       2.000000000000e+00       0.000000000000e+00
      1.200000000000e+01       2.000000000000e+00       0.000000000000e+00
      1.600000000000e+01       2.000000000000e+00       0.000000000000e+00
      2.000000000000e+01       2.000000000000e+00       0.000000000000e+00
CELLS 50 250
4         0        1        7        6
4         1        2        8        7
4         2        3        9        8
4         3        4       10        9
4         4        5       11       10
4         6        7       13       12
4         7        8       14       13
4         8        9       15       14
4         9       10       16       15
4        10       11       17       16
4        12       13       19       18
4        13       14       20       19
4        14       15       21       20
4        15       16       22       21
4        16       17       23       22
4        18       19       25       24
4        19       20       26       25
4        20       21       27       26
4        21       22       28       27
4        22       23       29       28
4        24       25       31       30
4        25       26       32       31
4        26       27       33       32
4        27       28       34       33
4        28       29       35       34
4        36       37       43       42
4        37       38       44       43
4        38       39       45       44
4        39       40       46       45
4        40       41       47       46
4        42       43       49       48
4        43       44       50       49
4        44       45       51       50
4        45       46       52       51
4        46       47       53       52
4        48       49       55       54
4        49       50       56       55
4        50       51       57       56
4        51       52       58       57
4        52       53       59       58
4        54       55       61       60
4        55       56       62       61
4        56       57       63       62
4        57       58       64       63
4        58       59       65       64
4        60       61       67       66
4        61       62       68       67
4        62       63       69       68
4        63       64       70       69
4        64       65       71       70
CELL_TYPES 50
9
9
9
9
9
9
9
9
9
9
9
9
9
9
9
9
9
9
9
9
9
9
9
9
9
9
9
9
9
9
9
9
9
9
9
9
9
9
9
9
9
9
9
9
9
9
9
9
9
9
POINT_DATA 72
VECTORS DSPL double
      0.000000000000e+00       0.000000000000e+00       0.000000000000e+00
      2.000189009755e-01       1.148399624047e-04       0.000000000000e+00
      4.001160323701e-01       4.412765537170e-04       0.000000000000e+00
      6.000469206467e-01       1.104983158512e-03       0.000000000000e+00
      8.001618870528e-01       1.570867857697e-03       0.000000000000e+00
      1.000000000000e+00       3.139951511319e-03       0.000000000000e+00
      0.000000000000e+00      -4.290297815076e-03       0.000000000000e+00
      2.000106761104e-01      -4.171076850423e-03       0.000000000000e+00
      4.000855671092e-01      -3.846025468135e-03       0.000000000000e+00
      6.000242934666e-01      -3.177765198593e-03       0.000000000000e+00
      8.001129390360e-01      -2.722839716960e-03       0.000000000000e+00
      1.000000000000e+00      -1.113413195137e-03       0.000000000000e+00
      0.000000000000e+00      -8.578030137302e-03       0.000000000000e+00
      2.000015052240e-01      -8.456745794171e-03       0.000000000000e+00
      4.000568141073e-01      -8.133639402924e-03       0.000000000000e+00
      5.999998529582e-01      -7.459444569284e-03       0.000000000000e+00
      8.000658216424e-01      -7.018206717523e-03       0.000000000000e+00
      1.000000000000e+00      -5.360785441334e-03       0.000000000000e+00
      0.000000000000e+00      -1.286388778731e-02       0.000000000000e+00
      1.999917395839e-01      -1.274200465842e-02       0.000000000000e+00
      4.000291337319e-01      -1.242172992556e-02       0.000000000000e+00
      5.999743357926e-01      -1.173974109747e-02       0.000000000000e+00
      8.000196841818e-01      -1.131591357056e-02       0.000000000000e+00
      1.000000000000e+00      -9.599813492641e-03       0.000000000000e+00
      0.000000000000e+00      -1.714819126312e-02       0.000000000000e+00
      1.999817088093e-01      -1.702676144443e-02       0.000000000000e+00
      4.000019133376e-01      -1.671041557432e-02       0.000000000000e+00
      5.999484617695e-01      -1.601842470826e-02       0.000000000000e+00
      7.999736817598e-01      -1.561644131690e-02       0.000000000000e+00
      1.000000000000e+00      -1.382875369239e-02       0.000000000000e+00
      0.000000000000e+00      -2.143092191210e-02       0.000000000000e+00
      1.999717436708e-01      -2.131098509744e-02       0.000000000000e+00
      3.999745329501e-01      -2.099977644889e-02       0.000000000000e+00
      5.999229666402e-01      -2.029533911536e-02       0.000000000000e+00
      7.999269543550e-01      -1.992008914655e-02       0.000000000000e+00
      1.000000000000e+00      -1.804640534418e-02       0.000000000000e+00
      0.000000000000e+00      -2.143092191210e-02       0.000000000000e+00
      1.999717436708e-01      -2.131098509744e-02       0.000000000000e+00
      3.999745329501e-01      -2.099977644889e-02       0.000000000000e+00
      5.999229666402e-01      -2.029533911536e-02       0.000000000000e+00
      7.999269543550e-01      -1.992008914655e-02       0.000000000000e+00
      1.000000000000e+00      -1.804640534418e-02       0.000000000000e+00
      0.000000000000e+00      -2.571175160487e-02       0.000000000000e+00
      1.999621924430e-01      -2.559470177400e-02       0.000000000000e+00
      3.999463408097e-01      -2.528985329732e-02       0.000000000000e+00
      5.998986250501e-01      -2.457040365595e-02       0.000000000000e+00
      7.998786137956e-01      -2.422697643471e-02       0.000000000000e+00
      1.000000000000e+00      -2.225204113109e-02       0.000000000000e+00
      0.000000000000e+00      -2.998981514267e-02       0.000000000000e+00
      1.999534610452e-01      -2.987801433297e-02       0.000000000000e+00
      3.999165892116e-01      -2.958067050735e-02       0.000000000000e+00
      5.998763194679e-01      -2.884357567136e-02       0.000000000000e+00
      7.998276800966e-01      -2.853707241883e-02       0.000000000000e+00
      1.000000000000e+00      -2.644584455410e-02       0.000000000000e+00
      0.000000000000e+00      -3.426440085584e-02       0.000000000000e+00
      1.999459676589e-01      -3.416109509531e-02       0.000000000000e+00
      3.998845212684e-01      -3.387206222721e-02       0.000000000000e+00
      5.998569133936e-01      -3.311513679651e-02       0.000000000000e+00
      7.997732930547e-01      -3.284983818402e-02       0.000000000000e+00
      1.000000000000e+00      -3.062735491286e-02       0.000000000000e+00
      0.000000000000e+00      -3.853190864852e-02       0.000000000000e+00
      1.999404242523e-01      -3.844428285560e-02       0.000000000000e+00
      3.998488547593e-01      -3.816432266610e-02       0.000000000000e+00
      5.998419764330e-01      -3.738460431706e-02       0.000000000000e+00
      7.997135479787e-01      -3.716557318346e-02       0.000000000000e+00
      1.000000000000e+00      -3.480202952675e-02       0.000000000000e+00
      0.000000000000e+00      -4.280598909280e-02       0.000000000000e+00
      1.999041954289e-01      -4.272778664948e-02       0.000000000000e+00
      3.998940840363e-01      -4.245321435338e-02       0.000000000000e+00
      5.996433062415e-01      -4.165909446502e-02       0.000000000000e+00
      8.001183586482e-01      -4.147450293363e-02       0.000000000000e+00
      9.969987842350e-01      -3.893749224857e-02       0.000000000000e+00
CELL_DATA 50
SCALARS eps11 double
LOOKUP_TABLE default
      5.000372067797e-02
      5.002143669060e-02
      4.998379001879e-02
      5.002535879223e-02
      4.996569382040e-02
      5.000153854210e-02
      5.001623033216e-02
      4.998527936098e-02
      5.001926765511e-02
      4.997768410965e-02
      4.999916450709e-02
      5.001156305783e-02
      4.998606095750e-02
      5.001388806953e-02
      4.998932340806e-02
      4.999668319034e-02
      5.000719444244e-02
      4.998647200297e-02
      5.000882711644e-02
      5.000082324781e-02
      4.999417668399e-02
      5.000288901924e-02
      4.998684712025e-02
      5.000369088900e-02
      5.001239628752e-02
      4.999172969556e-02
      4.999840335640e-02
      4.998753363317e-02
      4.999807228510e-02
      5.002426102978e-02
      4.998943484511e-02
      4.999347255296e-02
      4.998890810920e-02
      4.999153632536e-02
      5.003664816738e-02
      4.998739884512e-02
      4.998779533387e-02
      4.999139167338e-02
      4.998361458474e-02
      5.004979956290e-02
      4.998574748265e-02
      4.998101909209e-02
      4.999547669586e-02
      4.997375631681e-02
      5.006400041260e-02
      4.998190752544e-02
      4.998249459498e-02
      4.997903172293e-02
      5.001605353740e-02
      4.979041130551e-02
SCALARS eps12 double
LOOKUP_TABLE default
     -4.707856158514e-06
      7.284376257104e-06
     -1.058708131237e-05
      9.794895083889e-06
      6.435745017219e-05
     -1.103316997461e-06
      2.140601039600e-06
     -1.589512790710e-06
     -3.173365914104e-06
      8.587305781582e-05
      1.024210979742e-06
     -1.211349759694e-06
      4.503008127334e-06
     -1.222536721139e-05
      1.019996045365e-04
      1.950017403328e-06
     -3.051657781086e-06
      8.046606122402e-06
     -1.780073765826e-05
      1.134025913155e-04
      1.755952539393e-06
     -3.457753958458e-06
      9.124998764382e-06
     -1.998518701281e-05
      1.202906768937e-04
      3.681613543963e-07
     -2.354558442589e-06
      7.619047681198e-06
     -1.859861955930e-05
      1.225250245934e-04
     -2.543458888402e-06
      6.297938105567e-07
      2.988303710781e-06
     -1.289793497687e-05
      1.191894828963e-04
     -7.266426870548e-06
      5.698505578812e-06
     -4.994980035585e-06
     -2.605593045432e-06
      1.103630647447e-04
     -1.525574552977e-05
      1.467586066237e-05
     -1.906281750970e-05
      1.609962170091e-05
      8.922637803195e-05
      4.201145487861e-05
     -8.039264276538e-05
      1.685628673343e-04
     -3.322693194316e-04
     -6.543703303974e-04
SCALARS eps21 double
LOOKUP_TABLE default
     -4.707856158514e-06
      7.284376257104e-06
     -1.058708131237e-05
      9.794895083889e-06
      6.435745017219e-05
     -1.103316997461e-06
      2.140601039600e-06
     -1.589512790710e-06
     -3.173365914104e-06
      8.587305781582e-05
      1.024210979742e-06
     -1.211349759694e-06
      4.503008127334e-06
     -1.222536721139e-05
      1.019996045365e-04
      1.950017403328e-06
     -3.051657781086e-06
      8.046606122402e-06
     -1.780073765826e-05
      1.134025913155e-04
      1.755952539393e-06
     -3.457753958458e-06
      9.124998764382e-06
     -1.998518701281e-05
      1.202906768937e-04
      3.681613543963e-07
     -2.354558442589e-06
      7.619047681198e-06
     -1.859861955930e-05
      1.225250245934e-04
     -2.543458888402e-06
      6.297938105567e-07
      2.988303710781e-06
     -1.289793497687e-05
      1.191894828963e-04
     -7.266426870548e-06
      5.698505578812e-06
     -4.994980035585e-06
     -2.605593045432e-06
      1.103630647447e-04
     -1.525574552977e-05
      1.467586066237e-05
     -1.906281750970e-05
      1.609962170091e-05
      8.922637803195e-05
      4.201145487861e-05
     -8.039264276538e-05
      1.685628673343e-04
     -3.322693194316e-04
     -6.543703303974e-04
SCALARS eps22 double
LOOKUP_TABLE default
     -2.142816277698e-02
     -2.144061570342e-02
     -2.142250639215e-02
     -2.143083198273e-02
     -2.142074028758e-02
     -2.142898435497e-02
     -2.143438569838e-02
     -2.142862105761e-02
     -2.142087630592e-02
     -2.142998972599e-02
     -2.142940801845e-02
     -2.142889803094e-02
     -2.143429777405e-02
     -2.141067470665e-02
     -2.143957861277e-02
     -2.142966083003e-02
     -2.142369961762e-02
     -2.143993870207e-02
     -2.139997436166e-02
     -2.144958363148e-02
     -2.142995891635e-02
     -2.141835130969e-02
     -2.144595128767e-02
     -2.138849260005e-02
     -2.146010302909e-02
     -2.143049877793e-02
     -2.141245663444e-02
     -2.145269105032e-02
     -2.137601278127e-02
     -2.147106968564e-02
     -2.143164356004e-02
     -2.140524141285e-02
     -2.146101427802e-02
     -2.136165448167e-02
     -2.148394447654e-02
     -2.143318223848e-02
     -2.139731856550e-02
     -2.146969604602e-02
     -2.134764059667e-02
     -2.149258364443e-02
     -2.143732833596e-02
     -2.138353711858e-02
     -2.148595794209e-02
     -2.132381792548e-02
     -2.152131896153e-02
     -2.142976998786e-02
     -2.139854219061e-02
     -2.145739229433e-02
     -2.136891108780e-02
     -2.137387536292e-02
SCALARS sig11 double
LOOKUP_TABLE default
      1.153956285522e+04
      1.154306231577e+04
      1.153461390396e+04
      1.154535639913e+04
      1.152971221823e+04
      1.153884644486e+04
      1.154234530737e+04
      1.153429411430e+04
      1.154484065005e+04
      1.153198117573e+04
      1.153812399496e+04
      1.154169075683e+04
      1.153382730959e+04
      1.154455584558e+04
      1.153410978535e+04
      1.153739191671e+04
      1.154108559063e+04
      1.153326008886e+04
      1.154442154102e+04
      1.153614855509e+04
      1.153664723234e+04
      1.154051644869e+04
      1.153263768376e+04
      1.154436062861e+04
      1.153814569891e+04
      1.153589008123e+04
      1.153996254889e+04
      1.153201520751e+04
      1.154428427056e+04
      1.154017111766e+04
      1.153510264990e+04
      1.153944280053e+04
      1.153139537026e+04
      1.154417616824e+04
      1.154211303574e+04
      1.153434067155e+04
      1.153879777779e+04
      1.153104562517e+04
      1.154363458917e+04
      1.154478416567e+04
      1.153337152843e+04
      1.153855186167e+04
      1.153023023835e+04
      1.154373394090e+04
      1.154531724245e+04
      1.153320172501e+04
      1.153715105279e+04
      1.152904220909e+04
      1.155022782974e+04
      1.148583906547e+04
SCALARS sig12 double
LOOKUP_TABLE default
     -7.604998409907e-01
      1.176706933840e+00
     -1.710220827383e+00
      1.582252282782e+00
      1.039620348935e+01
     -1.782281303591e-01
      3.457893987046e-01
     -2.567674508070e-01
     -5.126206476629e-01
      1.387180164717e+01
      1.654494659583e-01
     -1.956795765659e-01
      7.274090051847e-01
     -1.974867011070e+00
      1.647685919436e+01
      3.150028113069e-01
     -4.929601030985e-01
      1.299836373619e+00
     -2.875503775565e+00
      1.831888013558e+01
      2.836538717481e-01
     -5.585602548278e-01
      1.474038261939e+00
     -3.228376363608e+00
      1.943157088282e+01
      5.947221878710e-02
     -3.803517484183e-01
      1.230769240809e+00
     -3.004392390349e+00
      1.979250397278e+01
     -4.108664358187e-01
      1.017359232438e-01
      4.827259840492e-01
     -2.083512573187e+00
      1.925368569863e+01
     -1.173807417550e+00
      9.205278242696e-01
     -8.068813903638e-01
     -4.209034919545e-01
      1.782787968953e+01
     -2.464389662501e+00
      2.370715953152e+00
     -3.079378213105e+00
      2.600708120916e+00
      1.441349183593e+01
      6.786465788084e+00
     -1.298650383133e+01
      2.722938626170e+01
     -5.367427467742e+01
     -1.057059764488e+02
SCALARS sig21 double
LOOKUP_TABLE default
     -7.604998409907e-01
      1.176706933840e+00
     -1.710220827383e+00
      1.582252282782e+00
      1.039620348935e+01
     -1.782281303591e-01
      3.457893987046e-01
     -2.567674508070e-01
     -5.126206476629e-01
      1.387180164717e+01
      1.654494659583e-01
     -1.956795765659e-01
      7.274090051847e-01
     -1.974867011070e+00
      1.647685919436e+01
      3.150028113069e-01
     -4.929601030985e-01
      1.299836373619e+00
     -2.875503775565e+00
      1.831888013558e+01
      2.836538717481e-01
     -5.585602548278e-01
      1.474038261939e+00
     -3.228376363608e+00
      1.943157088282e+01
      5.947221878710e-02
     -3.803517484183e-01
      1.230769240809e+00
     -3.004392390349e+00
      1.979250397278e+01
     -4.108664358187e-01
      1.017359232438e-01
      4.827259840492e-01
     -2.083512573187e+00
      1.925368569863e+01
     -1.173807417550e+00
      9.205278242696e-01
     -8.068813903638e-01
     -4.209034919545e-01
      1.782787968953e+01
     -2.464389662501e+00
      2.370715953152e+00
     -3.079378213105e+00
      2.600708120916e+00
      1.441349183593e+01
      6.786465788084e+00
     -1.298650383133e+01
      2.722938626170e+01
     -5.367427467742e+01
     -1.057059764488e+02
SCALARS sig22 double
LOOKUP_TABLE default
      5.662971092383e-01
     -8.076863372835e-01
     -2.493624256520e-01
      2.433273939039e+00
     -1.942522285267e+00
      6.966917776617e-02
      3.227178170853e-01
     -1.797491783824e+00
      4.509702504174e+00
     -3.104597715107e+00
     -3.377207042640e-01
      1.308580951671e+00
     -3.307562428723e+00
      6.741858660426e+00
     -4.405156479025e+00
     -7.098096605157e-01
      2.248857854837e+00
     -4.852409647894e+00
      9.153609943983e+00
     -5.840248490304e+00
     -1.097749254714e+00
      3.239164784522e+00
     -6.506674446944e+00
      1.177714192123e+01
     -7.411883004005e+00
     -1.546826030996e+00
      4.362088826939e+00
     -8.328779822376e+00
      1.462437522010e+01
     -9.074613294023e+00
     -2.148477084298e+00
      5.804390669158e+00
     -1.051516921103e+01
      1.789149940867e+01
     -1.121346828058e+01
     -2.830118872433e+00
      7.356301739500e+00
     -1.266854488800e+01
      2.089336755398e+01
     -1.206235244004e+01
     -4.202257652863e+00
      1.043124302006e+01
     -1.677074162950e+01
      2.643348637290e+01
     -1.846511798410e+01
     -2.530796370158e+00
      6.368187430962e+00
     -1.068782446606e+01
      1.881046721104e+01
     -9.930319426575e+00
