# vtk DataFile Version 3.0
truss_upper_top_growth_BCTipp_C1_02.vtk
ASCII
DATASET UNSTRUCTURED_GRID
FIELD FieldData 2
TIME 1 1 double
2.000000e-01
CYCLE 1 1 int
2
POINTS 72 double
      0.000000000000e+00       0.000000000000e+00       0.000000000000e+00
      4.000000000000e+00       0.000000000000e+00       0.000000000000e+00
      8.000000000000e+00       0.000000000000e+00       0.000000000000e+00
      1.200000000000e+01       0.000000000000e+00       0.000000000000e+00
      1.600000000000e+01       0.000000000000e+00       0.000000000000e+00
      2.000000000000e+01       0.000000000000e+00       0.000000000000e+00
      0.000000000000e+00       2.000000000000e-01       0.000000000000e+00
      4.000000000000e+00       2.000000000000e-01       0.000000000000e+00
      8.000000000000e+00       2.000000000000e-01       0.000000000000e+00
      1.200000000000e+01       2.000000000000e-01       0.000000000000e+00
      1.600000000000e+01       2.000000000000e-01       0.000000000000e+00
      2.000000000000e+01       2.000000000000e-01       0.000000000000e+00
      0.000000000000e+00       4.000000000000e-01       0.000000000000e+00
      4.000000000000e+00       4.000000000000e-01       0.000000000000e+00
      8.000000000000e+00       4.000000000000e-01       0.000000000000e+00
      1.200000000000e+01       4.000000000000e-01       0.000000000000e+00
      1.600000000000e+01       4.000000000000e-01       0.000000000000e+00
      2.000000000000e+01       4.000000000000e-01       0.000000000000e+00
      0.000000000000e+00       6.000000000000e-01       0.000000000000e+00
      4.000000000000e+00       6.000000000000e-01       0.000000000000e+00
      8.000000000000e+00       6.000000000000e-01       0.000000000000e+00
      1.200000000000e+01       6.000000000000e-01       0.000000000000e+00
      1.600000000000e+01       6.000000000000e-01       0.000000000000e+00
      2.000000000000e+01       6.000000000000e-01       0.000000000000e+00
      0.000000000000e+00       8.000000000000e-01       0.000000000000e+00
      4.000000000000e+00       8.000000000000e-01       0.000000000000e+00
      8.000000000000e+00       8.000000000000e-01       0.000000000000e+00
      1.200000000000e+01       8.000000000000e-01       0.000000000000e+00
      1.600000000000e+01       8.000000000000e-01       0.000000000000e+00
      2.000000000000e+01       8.000000000000e-01       0.000000000000e+00
      0.000000000000e+00       1.000000000000e+00       0.000000000000e+00
      4.000000000000e+00       1.000000000000e+00       0.000000000000e+00
      8.000000000000e+00       1.000000000000e+00       0.000000000000e+00
      1.200000000000e+01       1.000000000000e+00       0.000000000000e+00
      1.600000000000e+01       1.000000000000e+00       0.000000000000e+00
      2.000000000000e+01       1.000000000000e+00       0.000000000000e+00
      0.000000000000e+00       1.000000000000e+00       0.000000000000e+00
      4.000000000000e+00       1.000000000000e+00       0.000000000000e+00
      8.000000000000e+00       1.000000000000e+00       0.000000000000e+00
      1.200000000000e+01       1.000000000000e+00       0.000000000000e+00
      1.600000000000e+01       1.000000000000e+00       0.000000000000e+00
      2.000000000000e+01       1.000000000000e+00       0.000000000000e+00
      0.000000000000e+00       1.200000000000e+00       0.000000000000e+00
      4.000000000000e+00       1.200000000000e+00       0.000000000000e+00
      8.000000000000e+00       1.200000000000e+00       0.000000000000e+00
      1.200000000000e+01       1.200000000000e+00       0.000000000000e+00
      1.600000000000e+01       1.200000000000e+00       0.000000000000e+00
      2.000000000000e+01       1.200000000000e+00       0.000000000000e+00
      0.000000000000e+00       1.400000000000e+00       0.000000000000e+00
      4.000000000000e+00       1.400000000000e+00       0.000000000000e+00
      8.000000000000e+00       1.400000000000e+00       0.000000000000e+00
      1.200000000000e+01       1.400000000000e+00       0.000000000000e+00
      1.600000000000e+01       1.400000000000e+00       0.000000000000e+00
      2.000000000000e+01       1.400000000000e+00       0.000000000000e+00
      0.000000000000e+00       1.600000000000e+00       0.000000000000e+00
      4.000000000000e+00       1.600000000000e+00       0.000000000000e+00
      8.000000000000e+00       1.600000000000e+00       0.000000000000e+00
      1.200000000000e+01       1.600000000000e+00       0.000000000000e+00
      1.600000000000e+01       1.600000000000e+00       0.000000000000e+00
      2.000000000000e+01       1.600000000000e+00       0.000000000000e+00
      0.000000000000e+00       1.800000000000e+00       0.000000000000e+00
      4.000000000000e+00       1.800000000000e+00       0.000000000000e+00
      8.000000000000e+00       1.800000000000e+00       0.000000000000e+00
      1.200000000000e+01       1.800000000000e+00       0.000000000000e+00
      1.600000000000e+01       1.800000000000e+00       0.000000000000e+00
      2.000000000000e+01       1.800000000000e+00       0.000000000000e+00
      0.000000000000e+00       2.000000000000e+00       0.000000000000e+00
      4.000000000000e+00       2.000000000000e+00       0.000000000000e+00
      8.000000000000e+00       2.000000000000e+00       0.000000000000e+00
      1.200000000000e+01       2.000000000000e+00       0.000000000000e+00
      1.600000000000e+01       2.000000000000e+00       0.000000000000e+00
      2.000000000000e+01       2.000000000000e+00       0.000000000000e+00
CELLS 50 250
4         0        1        7        6
4         1        2        8        7
4         2        3        9        8
4         3        4       10        9
4         4        5       11       10
4         6        7       13       12
4         7        8       14       13
4         8        9       15       14
4         9       10       16       15
4        10       11       17       16
4        12       13       19       18
4        13       14       20       19
4        14       15       21       20
4        15       16       22       21
4        16       17       23       22
4        18       19       25       24
4        19       20       26       25
4        20       21       27       26
4        21       22       28       27
4        22       23       29       28
4        24       25       31       30
4        25       26       32       31
4        26       27       33       32
4        27       28       34       33
4        28       29       35       34
4        36       37       43       42
4        37       38       44       43
4        38       39       45       44
4        39       40       46       45
4        40       41       47       46
4        42       43       49       48
4        43       44       50       49
4        44       45       51       50
4        45       46       52       51
4        46       47       53       52
4        48       49       55       54
4        49       50       56       55
4        50       51       57       56
4        51       52       58       57
4        52       53       59       58
4        54       55       61       60
4        55       56       62       61
4        56       57       63       62
4        57       58       64       63
4        58       59       65       64
4        60       61       67       66
4        61       62       68       67
4        62       63       69       68
4        63       64       70       69
4        64       65       71       70
CELL_TYPES 50
9
9
9
9
9
9
9
9
9
9
9
9
9
9
9
9
9
9
9
9
9
9
9
9
9
9
9
9
9
9
9
9
9
9
9
9
9
9
9
9
9
9
9
9
9
9
9
9
9
9
POINT_DATA 72
VECTORS DSPL double
      0.000000000000e+00       0.000000000000e+00       0.000000000000e+00
      1.997515983210e-01      -3.854413969283e-03       0.000000000000e+00
      4.001294658955e-01      -4.247545585743e-03       0.000000000000e+00
      5.998705341045e-01      -4.247545585796e-03       0.000000000000e+00
      8.002484016790e-01      -3.854413969428e-03       0.000000000000e+00
      1.000000000000e+00      -1.884924406295e-13       0.000000000000e+00
      0.000000000000e+00      -4.236993716403e-03       0.000000000000e+00
      1.998708262991e-01      -8.154454465931e-03       0.000000000000e+00
      4.001016888301e-01      -8.530502851837e-03       0.000000000000e+00
      5.998983111699e-01      -8.530502851889e-03       0.000000000000e+00
      8.001291737009e-01      -8.154454466075e-03       0.000000000000e+00
      1.000000000000e+00      -4.236993716592e-03       0.000000000000e+00
      0.000000000000e+00      -8.460728466904e-03       0.000000000000e+00
      1.999864300575e-01      -1.245598092439e-02       0.000000000000e+00
      4.000788053651e-01      -1.281195695133e-02       0.000000000000e+00
      5.999211946349e-01      -1.281195695138e-02       0.000000000000e+00
      8.000135699425e-01      -1.245598092453e-02       0.000000000000e+00
      1.000000000000e+00      -8.460728467093e-03       0.000000000000e+00
      0.000000000000e+00      -1.266901867031e-02       0.000000000000e+00
      2.001018885674e-01      -1.675962700026e-02       0.000000000000e+00
      4.000567944920e-01      -1.709172144332e-02       0.000000000000e+00
      5.999432055080e-01      -1.709172144337e-02       0.000000000000e+00
      7.998981114326e-01      -1.675962700041e-02       0.000000000000e+00
      1.000000000000e+00      -1.266901867049e-02       0.000000000000e+00
      0.000000000000e+00      -1.686068734187e-02       0.000000000000e+00
      2.002207034887e-01      -2.106557677401e-02       0.000000000000e+00
      4.000316045356e-01      -2.136973977768e-02       0.000000000000e+00
      5.999683954644e-01      -2.136973977773e-02       0.000000000000e+00
      7.997792965113e-01      -2.106557677416e-02       0.000000000000e+00
      1.000000000000e+00      -1.686068734206e-02       0.000000000000e+00
      0.000000000000e+00      -2.103557817483e-02       0.000000000000e+00
      2.003465199126e-01      -2.537355428200e-02       0.000000000000e+00
      3.999989674258e-01      -2.564608909139e-02       0.000000000000e+00
      6.000010325742e-01      -2.564608909144e-02       0.000000000000e+00
      7.996534800874e-01      -2.537355428214e-02       0.000000000000e+00
      1.000000000000e+00      -2.103557817502e-02       0.000000000000e+00
      0.000000000000e+00      -2.103557817483e-02       0.000000000000e+00
      2.003465199126e-01      -2.537355428200e-02       0.000000000000e+00
      3.999989674258e-01      -2.564608909139e-02       0.000000000000e+00
      6.000010325742e-01      -2.564608909144e-02       0.000000000000e+00
      7.996534800874e-01      -2.537355428214e-02       0.000000000000e+00
      1.000000000000e+00      -2.103557817502e-02       0.000000000000e+00
      3.068875028621e-03      -2.517945153585e-02       0.000000000000e+00
      1.999692834025e-01      -2.967541568704e-02       0.000000000000e+00
      4.002341819085e-01      -2.992319763824e-02       0.000000000000e+00
      5.997658180915e-01      -2.992319763829e-02       0.000000000000e+00
      8.000307165975e-01      -2.967541568718e-02       0.000000000000e+00
      9.969311249714e-01      -2.517945153604e-02       0.000000000000e+00
      1.879499615742e-02      -2.738781053004e-02       0.000000000000e+00
      1.984730659116e-01      -3.429198426068e-02       0.000000000000e+00
      4.011161022963e-01      -3.412775383309e-02       0.000000000000e+00
      5.988838977037e-01      -3.412775383314e-02       0.000000000000e+00
      8.015269340884e-01      -3.429198426082e-02       0.000000000000e+00
      9.812050038426e-01      -2.738781053021e-02       0.000000000000e+00
      3.685888671101e-02      -2.826830134712e-02       0.000000000000e+00
      1.971662977156e-01      -3.897535108421e-02       0.000000000000e+00
      4.018935794362e-01      -3.831438924492e-02       0.000000000000e+00
      5.981064205639e-01      -3.831438924497e-02       0.000000000000e+00
      8.028337022844e-01      -3.897535108435e-02       0.000000000000e+00
      9.631411132890e-01      -2.826830134727e-02       0.000000000000e+00
      4.597783642287e-02      -2.960585818478e-02       0.000000000000e+00
      1.967838712729e-01      -4.336933481048e-02       0.000000000000e+00
      4.021244214903e-01      -4.256375763207e-02       0.000000000000e+00
      5.978755785097e-01      -4.256375763212e-02       0.000000000000e+00
      8.032161287272e-01      -4.336933481063e-02       0.000000000000e+00
      9.540221635771e-01      -2.960585818490e-02       0.000000000000e+00
      5.067771510066e-02      -3.084788005385e-02       0.000000000000e+00
      1.966957023313e-01      -4.768920625193e-02       0.000000000000e+00
      4.021813182893e-01      -4.682745360754e-02       0.000000000000e+00
      5.978186817107e-01      -4.682745360759e-02       0.000000000000e+00
      8.033042976687e-01      -4.768920625207e-02       0.000000000000e+00
      9.493222848993e-01      -3.084788005394e-02       0.000000000000e+00
CELL_DATA 50
SCALARS eps11 double
LOOKUP_TABLE default
      4.995291499502e-02
      5.007583522054e-02
      4.994249956886e-02
      5.007583522055e-02
      4.995291499502e-02
      4.998219613622e-02
      5.004030586330e-02
      4.995499600096e-02
      5.004030586330e-02
      4.998219613622e-02
      5.001100678850e-02
      5.000596661051e-02
      4.996605320198e-02
      5.000596661051e-02
      5.001100678850e-02
      5.004021719615e-02
      4.997094172723e-02
      4.997768215325e-02
      4.997094172723e-02
      5.004021719615e-02
      5.007071800673e-02
      4.993330474159e-02
      4.999195450337e-02
      4.993330474159e-02
      5.007071800673e-02
      4.980504078513e-02
      4.995688244817e-02
      4.996467436198e-02
      4.995688244816e-02
      4.980504078512e-02
      4.749714447839e-02
      5.032270737868e-02
      4.969335941199e-02
      5.032270737868e-02
      4.749714447838e-02
      4.216286372121e-02
      5.097431976845e-02
      4.920794549969e-02
      5.097431976845e-02
      4.216286372120e-02
      3.881328199735e-02
      5.126673968858e-02
      4.898958091178e-02
      5.126673968858e-02
      3.881328199733e-02
      3.698251280559e-02
      5.136451852378e-02
      4.891498847379e-02
      5.136451852378e-02
      3.698251280558e-02
SCALARS eps12 double
LOOKUP_TABLE default
     -1.412422128248e-04
     -1.818504852761e-05
     -6.014569200216e-17
      1.818504852783e-05
      1.412422128247e-04
     -1.672237877619e-04
     -6.660713193105e-06
     -3.091882015715e-17
      6.660713192877e-06
      1.672237877618e-04
     -1.798415991715e-04
     -1.858530933760e-06
     -9.774548453078e-17
      1.858530933607e-06
      1.798415991713e-04
     -1.792474076809e-04
     -3.770550105628e-06
     -4.318173965102e-17
      3.770550105412e-06
      1.792474076806e-04
     -1.648017092946e-04
     -1.282438055657e-05
      1.430257483086e-16
      1.282438055629e-05
      1.648017092946e-04
      6.705729773234e-04
      2.414293754195e-04
     -2.129631411810e-16
     -2.414293754193e-04
     -6.705729773234e-04
      7.228647098747e-03
      9.443864589995e-04
      1.203803224638e-15
     -9.443864590006e-04
     -7.228647098747e-03
      9.372414672956e-03
      9.128735209754e-04
      1.546953212229e-15
     -9.128735209762e-04
     -9.372414672956e-03
      4.730773240469e-03
      3.508312218488e-04
      8.270344993696e-16
     -3.508312218477e-04
     -4.730773240470e-03
      1.687102099889e-03
      1.740623907000e-04
      3.244443237427e-16
     -1.740623906982e-04
     -1.687102099891e-03
SCALARS eps21 double
LOOKUP_TABLE default
     -1.412422128248e-04
     -1.818504852761e-05
     -6.014569200216e-17
      1.818504852783e-05
      1.412422128247e-04
     -1.672237877619e-04
     -6.660713193105e-06
     -3.091882015715e-17
      6.660713192877e-06
      1.672237877618e-04
     -1.798415991715e-04
     -1.858530933760e-06
     -9.774548453078e-17
      1.858530933607e-06
      1.798415991713e-04
     -1.792474076809e-04
     -3.770550105628e-06
     -4.318173965102e-17
      3.770550105412e-06
      1.792474076806e-04
     -1.648017092946e-04
     -1.282438055657e-05
      1.430257483086e-16
      1.282438055629e-05
      1.648017092946e-04
      6.705729773234e-04
      2.414293754195e-04
     -2.129631411810e-16
     -2.414293754193e-04
     -6.705729773234e-04
      7.228647098747e-03
      9.443864589995e-04
      1.203803224638e-15
     -9.443864590006e-04
     -7.228647098747e-03
      9.372414672956e-03
      9.128735209754e-04
      1.546953212229e-15
     -9.128735209762e-04
     -9.372414672956e-03
      4.730773240469e-03
      3.508312218488e-04
      8.270344993696e-16
     -3.508312218477e-04
     -4.730773240470e-03
      1.687102099889e-03
      1.740623907000e-04
      3.244443237427e-16
     -1.740623906982e-04
     -1.687102099891e-03
SCALARS eps22 double
LOOKUP_TABLE default
     -2.141795748252e-02
     -2.144889746596e-02
     -2.140914724590e-02
     -2.144889746596e-02
     -2.141795748252e-02
     -2.144270440997e-02
     -2.140945339640e-02
     -2.143854153010e-02
     -2.140945339640e-02
     -2.144270440998e-02
     -2.146767791830e-02
     -2.137005374652e-02
     -2.146739381322e-02
     -2.137005374652e-02
     -2.146767791830e-02
     -2.149364456541e-02
     -2.132883226945e-02
     -2.149790347314e-02
     -2.132883226945e-02
     -2.149364456541e-02
     -2.152140005100e-02
     -2.128385024667e-02
     -2.153235654751e-02
     -2.128385024667e-02
     -2.152140005100e-02
     -2.139726578944e-02
     -2.131678009064e-02
     -2.149556014151e-02
     -2.131678009064e-02
     -2.139726578944e-02
     -2.070762043674e-02
     -2.075769536923e-02
     -2.197455387725e-02
     -2.075769536923e-02
     -2.070762043672e-02
     -1.873822832428e-02
     -2.092942754745e-02
     -2.176481225701e-02
     -2.092942754745e-02
     -1.873822832424e-02
     -1.678844452842e-02
     -2.181632235476e-02
     -2.091838708198e-02
     -2.181632235476e-02
     -1.678844452838e-02
     -1.600316063198e-02
     -2.197217871855e-02
     -2.075840681274e-02
     -2.197217871855e-02
     -1.600316063194e-02
SCALARS sig11 double
LOOKUP_TABLE default
      1.152643689013e+04
      1.155743699436e+04
      1.152455992333e+04
      1.155743699436e+04
      1.152643689013e+04
      1.153171625807e+04
      1.155217191910e+04
      1.152453133797e+04
      1.155217191910e+04
      1.153171625807e+04
      1.153683517126e+04
      1.154723789561e+04
      1.152416155857e+04
      1.154723789561e+04
      1.153683517126e+04
      1.154194676964e+04
      1.154233077101e+04
      1.152375261100e+04
      1.154233077101e+04
      1.154194676964e+04
      1.154720643034e+04
      1.153714082976e+04
      1.152361317212e+04
      1.153714082976e+04
      1.154720643034e+04
      1.148714086669e+04
      1.153981648879e+04
      1.152035931211e+04
      1.153981648879e+04
      1.148714086669e+04
      1.091826952078e+04
      1.171096764693e+04
      1.138562872941e+04
      1.171096764693e+04
      1.091826952079e+04
      9.648908812669e+03
      1.187436744322e+04
      1.127381695435e+04
      1.187436744322e+04
      9.648908812672e+03
      8.938231631384e+03
      1.184958158821e+04
      1.131463463051e+04
      1.184958158821e+04
      8.938231631385e+03
      8.515827428091e+03
      1.185834031486e+04
      1.131293014701e+04
      1.185834031486e+04
      8.515827428091e+03
SCALARS sig12 double
LOOKUP_TABLE default
     -2.281604976400e+01
     -2.937584762153e+00
     -9.716671911519e-12
      2.937584762188e+00
      2.281604976399e+01
     -2.701307340769e+01
     -1.075961361963e+00
     -4.994338276276e-12
      1.075961361926e+00
      2.701307340767e+01
     -2.905133525078e+01
     -3.002242277613e-01
     -1.578959185622e-11
      3.002242277365e-01
      2.905133525074e+01
     -2.895535047154e+01
     -6.090888632168e-01
     -6.974421040695e-12
      6.090888631820e-01
      2.895535047148e+01
     -2.662181457836e+01
     -2.071630705293e+00
      2.310374114245e-11
      2.071630705247e+00
      2.662181457835e+01
      1.083233271061e+02
      3.900012987547e+01
     -3.440164819679e-11
     -3.900012987543e+01
     -1.083233271061e+02
      1.167704531336e+03
      1.525547356845e+02
      1.944533423170e-10
     -1.525547356847e+02
     -1.167704531336e+03
      1.514005447170e+03
      1.474641841576e+02
      2.498889983826e-10
     -1.474641841577e+02
     -1.514005447170e+03
      7.642018311526e+02
      5.667273583711e+01
      1.335975774452e-10
     -5.667273583694e+01
     -7.642018311529e+02
      2.725318776744e+02
      2.811777080539e+01
      5.241015954560e-11
     -2.811777080509e+01
     -2.725318776747e+02
SCALARS sig21 double
LOOKUP_TABLE default
     -2.281604976400e+01
     -2.937584762153e+00
     -9.716671911519e-12
      2.937584762188e+00
      2.281604976399e+01
     -2.701307340769e+01
     -1.075961361963e+00
     -4.994338276276e-12
      1.075961361926e+00
      2.701307340767e+01
     -2.905133525078e+01
     -3.002242277613e-01
     -1.578959185622e-11
      3.002242277365e-01
      2.905133525074e+01
     -2.895535047154e+01
     -6.090888632168e-01
     -6.974421040695e-12
      6.090888631820e-01
      2.895535047148e+01
     -2.662181457836e+01
     -2.071630705293e+00
      2.310374114245e-11
      2.071630705247e+00
      2.662181457835e+01
      1.083233271061e+02
      3.900012987547e+01
     -3.440164819679e-11
     -3.900012987543e+01
     -1.083233271061e+02
      1.167704531336e+03
      1.525547356845e+02
      1.944533423170e-10
     -1.525547356847e+02
     -1.167704531336e+03
      1.514005447170e+03
      1.474641841576e+02
      2.498889983826e-10
     -1.474641841577e+02
     -1.514005447170e+03
      7.642018311526e+02
      5.667273583711e+01
      1.335975774452e-10
     -5.667273583694e+01
     -7.642018311529e+02
      2.725318776744e+02
      2.811777080539e+01
      5.241015954560e-11
     -2.811777080509e+01
     -2.725318776747e+02
SCALARS sig22 double
LOOKUP_TABLE default
     -2.704048546421e+00
      3.441714228358e+00
     -1.475331363884e+00
      3.441714228357e+00
     -2.704048546416e+00
     -6.152291701191e+00
      1.028773099395e+01
     -8.270878585544e+00
      1.028773099396e+01
     -6.152291701181e+00
     -9.721589066460e+00
      1.726537639221e+01
     -1.508757465151e+01
      1.726537639221e+01
     -9.721589066459e+00
     -1.352320722705e+01
      2.467497155168e+01
     -2.230352864926e+01
      2.467497155167e+01
     -1.352320722705e+01
     -1.767417898744e+01
      3.283117780608e+01
     -3.031399763731e+01
      3.283117780609e+01
     -1.767417898743e+01
     -1.477019535412e+01
      2.637869405862e+01
     -2.321703076434e+01
      2.637869405862e+01
     -1.477019535412e+01
     -9.942327319812e+01
      2.287487414990e+02
     -1.914957250010e+02
      2.287487414994e+02
     -9.942327319182e+01
     -1.889599023707e+02
      2.591467229554e+02
     -1.910131448087e+02
      2.591467229560e+02
     -1.889599023599e+02
     -4.358573047023e+01
      4.385618121171e+01
      2.180903151994e+01
      4.385618121226e+01
     -4.358573046057e+01
     -4.339674259447e+01
      1.164306802062e+01
      5.799706226043e+01
      1.164306802119e+01
     -4.339674258451e+01
