# vtk DataFile Version 3.0
truss_top_growth_BCTipp_C0_04.vtk
ASCII
DATASET UNSTRUCTURED_GRID
FIELD FieldData 2
TIME 1 1 double
6.000000e-01
CYCLE 1 1 int
4
POINTS 72 double
      0.000000000000e+00       0.000000000000e+00       0.000000000000e+00
      4.000000000000e+00       0.000000000000e+00       0.000000000000e+00
      8.000000000000e+00       0.000000000000e+00       0.000000000000e+00
      1.200000000000e+01       0.000000000000e+00       0.000000000000e+00
      1.600000000000e+01       0.000000000000e+00       0.000000000000e+00
      2.000000000000e+01       0.000000000000e+00       0.000000000000e+00
      0.000000000000e+00       2.000000000000e-01       0.000000000000e+00
      4.000000000000e+00       2.000000000000e-01       0.000000000000e+00
      8.000000000000e+00       2.000000000000e-01       0.000000000000e+00
      1.200000000000e+01       2.000000000000e-01       0.000000000000e+00
      1.600000000000e+01       2.000000000000e-01       0.000000000000e+00
      2.000000000000e+01       2.000000000000e-01       0.000000000000e+00
      0.000000000000e+00       4.000000000000e-01       0.000000000000e+00
      4.000000000000e+00       4.000000000000e-01       0.000000000000e+00
      8.000000000000e+00       4.000000000000e-01       0.000000000000e+00
      1.200000000000e+01       4.000000000000e-01       0.000000000000e+00
      1.600000000000e+01       4.000000000000e-01       0.000000000000e+00
      2.000000000000e+01       4.000000000000e-01       0.000000000000e+00
      0.000000000000e+00       6.000000000000e-01       0.000000000000e+00
      4.000000000000e+00       6.000000000000e-01       0.000000000000e+00
      8.000000000000e+00       6.000000000000e-01       0.000000000000e+00
      1.200000000000e+01       6.000000000000e-01       0.000000000000e+00
      1.600000000000e+01       6.000000000000e-01       0.000000000000e+00
      2.000000000000e+01       6.000000000000e-01       0.000000000000e+00
      0.000000000000e+00       8.000000000000e-01       0.000000000000e+00
      4.000000000000e+00       8.000000000000e-01       0.000000000000e+00
      8.000000000000e+00       8.000000000000e-01       0.000000000000e+00
      1.200000000000e+01       8.000000000000e-01       0.000000000000e+00
      1.600000000000e+01       8.000000000000e-01       0.000000000000e+00
      2.000000000000e+01       8.000000000000e-01       0.000000000000e+00
      0.000000000000e+00       1.000000000000e+00       0.000000000000e+00
      4.000000000000e+00       1.000000000000e+00       0.000000000000e+00
      8.000000000000e+00       1.000000000000e+00       0.000000000000e+00
      1.200000000000e+01       1.000000000000e+00       0.000000000000e+00
      1.600000000000e+01       1.000000000000e+00       0.000000000000e+00
      2.000000000000e+01       1.000000000000e+00       0.000000000000e+00
      0.000000000000e+00       1.000000000000e+00       0.000000000000e+00
      4.000000000000e+00       1.000000000000e+00       0.000000000000e+00
      8.000000000000e+00       1.000000000000e+00       0.000000000000e+00
      1.200000000000e+01       1.000000000000e+00       0.000000000000e+00
      1.600000000000e+01       1.000000000000e+00       0.000000000000e+00
      2.000000000000e+01       1.000000000000e+00       0.000000000000e+00
      0.000000000000e+00       1.200000000000e+00       0.000000000000e+00
      4.000000000000e+00       1.200000000000e+00       0.000000000000e+00
      8.000000000000e+00       1.200000000000e+00       0.000000000000e+00
      1.200000000000e+01       1.200000000000e+00       0.000000000000e+00
      1.600000000000e+01       1.200000000000e+00       0.000000000000e+00
      2.000000000000e+01       1.200000000000e+00       0.000000000000e+00
      0.000000000000e+00       1.400000000000e+00       0.000000000000e+00
      4.000000000000e+00       1.400000000000e+00       0.000000000000e+00
      8.000000000000e+00       1.400000000000e+00       0.000000000000e+00
      1.200000000000e+01       1.400000000000e+00       0.000000000000e+00
      1.600000000000e+01       1.400000000000e+00       0.000000000000e+00
      2.000000000000e+01       1.400000000000e+00       0.000000000000e+00
      0.000000000000e+00       1.600000000000e+00       0.000000000000e+00
      4.000000000000e+00       1.600000000000e+00       0.000000000000e+00
      8.000000000000e+00       1.600000000000e+00       0.000000000000e+00
      1.200000000000e+01       1.600000000000e+00       0.000000000000e+00
      1.600000000000e+01       1.600000000000e+00       0.000000000000e+00
      2.000000000000e+01       1.600000000000e+00       0.000000000000e+00
      0.000000000000e+00       1.800000000000e+00       0.000000000000e+00
      4.000000000000e+00       1.800000000000e+00       0.000000000000e+00
      8.000000000000e+00       1.800000000000e+00       0.000000000000e+00
      1.200000000000e+01       1.800000000000e+00       0.000000000000e+00
      1.600000000000e+01       1.800000000000e+00       0.000000000000e+00
      2.000000000000e+01       1.800000000000e+00       0.000000000000e+00
      0.000000000000e+00       2.000000000000e+00       0.000000000000e+00
      4.000000000000e+00       2.000000000000e+00       0.000000000000e+00
      8.000000000000e+00       2.000000000000e+00       0.000000000000e+00
      1.200000000000e+01       2.000000000000e+00       0.000000000000e+00
      1.600000000000e+01       2.000000000000e+00       0.000000000000e+00
      2.000000000000e+01       2.000000000000e+00       0.000000000000e+00
CELLS 50 250
4         0        1        7        6
4         1        2        8        7
4         2        3        9        8
4         3        4       10        9
4         4        5       11       10
4         6        7       13       12
4         7        8       14       13
4         8        9       15       14
4         9       10       16       15
4        10       11       17       16
4        12       13       19       18
4        13       14       20       19
4        14       15       21       20
4        15       16       22       21
4        16       17       23       22
4        18       19       25       24
4        19       20       26       25
4        20       21       27       26
4        21       22       28       27
4        22       23       29       28
4        24       25       31       30
4        25       26       32       31
4        26       27       33       32
4        27       28       34       33
4        28       29       35       34
4        36       37       43       42
4        37       38       44       43
4        38       39       45       44
4        39       40       46       45
4        40       41       47       46
4        42       43       49       48
4        43       44       50       49
4        44       45       51       50
4        45       46       52       51
4        46       47       53       52
4        48       49       55       54
4        49       50       56       55
4        50       51       57       56
4        51       52       58       57
4        52       53       59       58
4        54       55       61       60
4        55       56       62       61
4        56       57       63       62
4        57       58       64       63
4        58       59       65       64
4        60       61       67       66
4        61       62       68       67
4        62       63       69       68
4        63       64       70       69
4        64       65       71       70
CELL_TYPES 50
9
9
9
9
9
9
9
9
9
9
9
9
9
9
9
9
9
9
9
9
9
9
9
9
9
9
9
9
9
9
9
9
9
9
9
9
9
9
9
9
9
9
9
9
9
9
9
9
9
9
POINT_DATA 72
VECTORS DSPL double
      0.000000000000e+00       0.000000000000e+00       0.000000000000e+00
      1.965408571007e-01      -2.864444294634e-02       0.000000000000e+00
      3.983751193953e-01      -4.816925171443e-02       0.000000000000e+00
      5.983346440234e-01      -6.245468617442e-02       0.000000000000e+00
      7.995631552858e-01      -7.087279484900e-02       0.000000000000e+00
      1.000000000000e+00      -7.145295775433e-02       0.000000000000e+00
      0.000000000000e+00      -3.953678437597e-03       0.000000000000e+00
      1.979420318933e-01      -3.299242906129e-02       0.000000000000e+00
      3.991120804639e-01      -5.245076946492e-02       0.000000000000e+00
      5.989666121846e-01      -6.675284699581e-02       0.000000000000e+00
      7.997664783128e-01      -7.517960399035e-02       0.000000000000e+00
      1.000000000000e+00      -7.573001691254e-02       0.000000000000e+00
      0.000000000000e+00      -7.904391454535e-03       0.000000000000e+00
      1.993152136625e-01      -3.735241919241e-02       0.000000000000e+00
      3.998667607795e-01      -5.671553783984e-02       0.000000000000e+00
      5.995854906811e-01      -7.104985742972e-02       0.000000000000e+00
      7.999773677355e-01      -7.948074255966e-02       0.000000000000e+00
      1.000000000000e+00      -7.997617988472e-02       0.000000000000e+00
      0.000000000000e+00      -1.183672841554e-02       0.000000000000e+00
      2.006804633622e-01      -4.172878936044e-02       0.000000000000e+00
      4.006268553645e-01      -6.096207875027e-02       0.000000000000e+00
      6.002000067431e-01      -7.534609783181e-02       0.000000000000e+00
      8.001906979678e-01      -8.377631891074e-02       0.000000000000e+00
      1.000000000000e+00      -8.419162817908e-02       0.000000000000e+00
      0.000000000000e+00      -1.574490466174e-02       0.000000000000e+00
      2.020578002200e-01      -4.612287014754e-02       0.000000000000e+00
      4.013801032969e-01      -6.518978709930e-02       0.000000000000e+00
      6.008188454619e-01      -7.964168811198e-02       0.000000000000e+00
      8.004013757849e-01      -8.806676563370e-02       0.000000000000e+00
      1.000000000000e+00      -8.837378187593e-02       0.000000000000e+00
      0.000000000000e+00      -1.963288506103e-02       0.000000000000e+00
      2.034676155740e-01      -5.053289729578e-02       0.000000000000e+00
      4.021137390494e-01      -6.939895702751e-02       0.000000000000e+00
      6.014511426882e-01      -8.393646956936e-02       0.000000000000e+00
      8.006040318431e-01      -9.235287272095e-02       0.000000000000e+00
      1.000000000000e+00      -9.251712752067e-02       0.000000000000e+00
      0.000000000000e+00      -1.963288506103e-02       0.000000000000e+00
      2.034676155740e-01      -5.053289729578e-02       0.000000000000e+00
      4.021137390494e-01      -6.939895702751e-02       0.000000000000e+00
      6.014511426882e-01      -8.393646956936e-02       0.000000000000e+00
      8.006040318431e-01      -9.235287272095e-02       0.000000000000e+00
      1.000000000000e+00      -9.251712752067e-02       0.000000000000e+00
      0.000000000000e+00      -2.352354310077e-02       0.000000000000e+00
      2.049322248765e-01      -5.495623752461e-02       0.000000000000e+00
      4.028133989027e-01      -7.358906660735e-02       0.000000000000e+00
      6.021072742382e-01      -8.823106773129e-02       0.000000000000e+00
      8.007926339862e-01      -9.663579620261e-02       0.000000000000e+00
      1.000000000000e+00      -9.660841573974e-02       0.000000000000e+00
      9.540421868178e-03      -2.731536429952e-02       0.000000000000e+00
      2.049771295003e-01      -5.935102762843e-02       0.000000000000e+00
      4.040655229631e-01      -7.778791032326e-02       0.000000000000e+00
      6.025269828227e-01      -9.250908606849e-02       0.000000000000e+00
      8.010654689964e-01      -1.009174194193e-01       0.000000000000e+00
      1.000000000000e+00      -1.006967918548e-01       0.000000000000e+00
      1.862294598513e-02      -3.084207571197e-02       0.000000000000e+00
      2.050385942434e-01      -6.366404152577e-02       0.000000000000e+00
      4.053752760585e-01      -8.202999560309e-02       0.000000000000e+00
      6.027745001850e-01      -9.675474741026e-02       0.000000000000e+00
      8.018033722528e-01      -1.051882201515e-01       0.000000000000e+00
      9.969496966387e-01      -1.048289358435e-01       0.000000000000e+00
      2.638903939287e-02      -3.381215493723e-02       0.000000000000e+00
      2.054235391495e-01      -6.800969872249e-02       0.000000000000e+00
      4.066733837377e-01      -8.626422087818e-02       0.000000000000e+00
      6.027680713302e-01      -1.009718432657e-01       0.000000000000e+00
      8.033392176984e-01      -1.095257882485e-01       0.000000000000e+00
      9.875487251003e-01      -1.082815376053e-01       0.000000000000e+00
      3.467102333089e-02      -3.642547173765e-02       0.000000000000e+00
      2.057733307200e-01      -7.234550696906e-02       0.000000000000e+00
      4.078973074916e-01      -9.049051573561e-02       0.000000000000e+00
      6.029748544858e-01      -1.051868645434e-01       0.000000000000e+00
      8.043231061862e-01      -1.138619040739e-01       0.000000000000e+00
      9.817065412412e-01      -1.112108271424e-01       0.000000000000e+00
CELL_DATA 50
SCALARS eps11 double
LOOKUP_TABLE default
      4.931115453157e-02
      5.037424653028e-02
      4.997762101443e-02
      5.025297016620e-02
      5.008400775752e-02
      4.965752866314e-02
      5.021458711089e-02
      4.994707743660e-02
      5.014868423627e-02
      5.003212255311e-02
      4.999941716231e-02
      5.006229864252e-02
      4.991147278888e-02
      5.004782122794e-02
      4.997899017835e-02
      5.034182178196e-02
      4.990931954106e-02
      4.987603367622e-02
      4.994694312841e-02
      4.992588187234e-02
      5.068978486938e-02
      4.974749110770e-02
      4.984609329691e-02
      4.984253201088e-02
      4.987409871512e-02
      5.104851467612e-02
      4.956829849405e-02
      4.982733744494e-02
      4.973081072246e-02
      4.982503866243e-02
      5.050425388323e-02
      4.953663592618e-02
      4.975385962509e-02
      4.963859047095e-02
      4.977162493886e-02
      4.725363808870e-02
      5.001098321488e-02
      4.945771861659e-02
      4.968375757162e-02
      4.940269292897e-02
      4.609084527977e-02
      5.012943056108e-02
      4.922170171326e-02
      4.991833582947e-02
      4.757475173345e-02
      4.338048427638e-02
      5.049223918387e-02
      4.884959174433e-02
      5.030347327392e-02
      4.487256402060e-02
SCALARS eps12 double
LOOKUP_TABLE default
     -5.999771602389e-04
     -1.571926982267e-04
      8.474049998438e-05
     -3.402787157021e-05
      1.146306968516e-04
     -7.876216663946e-04
     -8.801720781400e-05
      4.738698600712e-05
     -2.306947546273e-05
      1.224939595147e-04
     -8.794361653097e-04
     -5.730043472880e-05
      3.339037476026e-05
     -2.239279235710e-05
      1.345297037971e-04
     -8.776149437980e-04
     -6.413409004934e-05
      4.224156970179e-05
     -3.172873936835e-05
      1.507252428782e-04
     -7.782248817465e-04
     -1.117386430339e-04
      7.614388528535e-05
     -5.252518173831e-05
      1.724814101969e-04
     -5.655634091931e-04
     -2.097216586551e-04
      1.416383992508e-04
     -8.910256979256e-05
      2.037844438726e-04
      2.037264946135e-03
      8.257083600427e-04
     -4.164233183591e-04
      1.997745276870e-04
      2.529439752704e-05
      1.842127362602e-03
      6.724986926380e-04
     -1.891041972994e-04
     -1.731056092191e-04
     -7.188319222157e-04
      2.154549208914e-03
      2.127433356119e-04
      2.995204431626e-04
     -8.583399917970e-04
     -2.837138541197e-03
      2.020386398938e-03
      4.089821420422e-04
      2.390776930138e-05
     -4.114311778430e-04
     -1.835350108063e-03
SCALARS eps21 double
LOOKUP_TABLE default
     -5.999771602389e-04
     -1.571926982267e-04
      8.474049998438e-05
     -3.402787157021e-05
      1.146306968516e-04
     -7.876216663946e-04
     -8.801720781400e-05
      4.738698600712e-05
     -2.306947546273e-05
      1.224939595147e-04
     -8.794361653097e-04
     -5.730043472880e-05
      3.339037476026e-05
     -2.239279235710e-05
      1.345297037971e-04
     -8.776149437980e-04
     -6.413409004934e-05
      4.224156970179e-05
     -3.172873936835e-05
      1.507252428782e-04
     -7.782248817465e-04
     -1.117386430339e-04
      7.614388528535e-05
     -5.252518173831e-05
      1.724814101969e-04
     -5.655634091931e-04
     -2.097216586551e-04
      1.416383992508e-04
     -8.910256979256e-05
      2.037844438726e-04
      2.037264946135e-03
      8.257083600427e-04
     -4.164233183591e-04
      1.997745276870e-04
      2.529439752704e-05
      1.842127362602e-03
      6.724986926380e-04
     -1.891041972994e-04
     -1.731056092191e-04
     -7.188319222157e-04
      2.154549208914e-03
      2.127433356119e-04
      2.995204431626e-04
     -8.583399917970e-04
     -2.837138541197e-03
      2.020386398938e-03
      4.089821420422e-04
      2.390776930138e-05
     -4.114311778430e-04
     -1.835350108063e-03
SCALARS eps22 double
LOOKUP_TABLE default
     -2.118506633729e-02
     -2.152683474254e-02
     -2.142686182134e-02
     -2.154142180766e-02
     -2.146267243402e-02
     -2.136985422954e-02
     -2.138921563096e-02
     -2.147090781017e-02
     -2.145233998957e-02
     -2.146053948262e-02
     -2.155490995507e-02
     -2.125235428425e-02
     -2.151226940221e-02
     -2.136619538094e-02
     -2.145712812039e-02
     -2.174279825582e-02
     -2.111088131685e-02
     -2.155662612211e-02
     -2.127756753236e-02
     -2.145498391572e-02
     -2.193611752687e-02
     -2.095931400728e-02
     -2.160983319015e-02
     -2.118083821813e-02
     -2.145675420043e-02
     -2.218212529373e-02
     -2.077475559771e-02
     -2.168920558583e-02
     -2.106317059619e-02
     -2.146612991651e-02
     -2.178954318716e-02
     -2.082683236274e-02
     -2.162013981169e-02
     -2.103409399061e-02
     -2.145405154077e-02
     -2.041152064322e-02
     -2.128989982623e-02
     -2.125512743783e-02
     -2.123742486075e-02
     -2.119758890506e-02
     -1.965948321863e-02
     -2.131873892676e-02
     -2.118068466071e-02
     -2.121960999558e-02
     -2.048034001331e-02
     -1.881459339484e-02
     -2.149014767866e-02
     -2.093653391144e-02
     -2.143429241167e-02
     -1.938033111547e-02
SCALARS sig11 double
LOOKUP_TABLE default
      1.137323180171e+04
      1.163235317533e+04
      1.153234229688e+04
      1.159630200106e+04
      1.155807841733e+04
      1.144876134042e+04
      1.160389177029e+04
      1.151837152142e+04
      1.157761377575e+04
      1.154366928443e+04
      1.152299037633e+04
      1.157742227027e+04
      1.150329524544e+04
      1.155953732982e+04
      1.152906247045e+04
      1.159702213814e+04
      1.155131624918e+04
      1.148790289368e+04
      1.154175747180e+04
      1.151430893951e+04
      1.167196725309e+04
      1.152393155841e+04
      1.147299273782e+04
      1.152396038049e+04
      1.149945576249e+04
      1.174357262286e+04
      1.149563514610e+04
      1.145807433173e+04
      1.150663351662e+04
      1.148445095892e+04
      1.163727711547e+04
      1.148037508134e+04
      1.144567030145e+04
      1.148408630350e+04
      1.147081465182e+04
      1.088530576638e+04
      1.155836700680e+04
      1.140617616934e+04
      1.147222037846e+04
      1.139759184527e+04
      1.064770541029e+04
      1.158835719249e+04
      1.134847503505e+04
      1.154069218694e+04
      1.096774439227e+04
      9.983868855294e+03
      1.167015356976e+04
      1.127286221153e+04
      1.162355797948e+04
      1.033712702068e+04
SCALARS sig12 double
LOOKUP_TABLE default
     -9.691938742320e+01
     -2.539266663662e+01
      1.368884999748e+01
     -5.496810022880e+00
      1.851726641450e+01
     -1.272311922637e+02
     -1.421816433918e+01
      7.654820816535e+00
     -3.726607574748e+00
      1.978748576775e+01
     -1.420627651654e+02
     -9.256224071576e+00
      5.393829768965e+00
     -3.617297226916e+00
      2.173172138261e+01
     -1.417685678443e+02
     -1.036012223874e+01
      6.823638182597e+00
     -5.125411744119e+00
      2.434792384955e+01
     -1.257132501283e+02
     -1.805008849009e+01
      1.230016608456e+01
     -8.484837050035e+00
      2.786238164719e+01
     -9.136024302351e+01
     -3.387811409045e+01
      2.288004910974e+01
     -1.439349204341e+01
      3.291902554865e+01
      3.290966451449e+02
      1.333836581607e+02
     -6.726838219647e+01
      3.227126985713e+01
      4.086018062060e+00
      2.975744201126e+02
      1.086344041954e+02
     -3.054760110221e+01
     -2.796321379694e+01
     -1.161190028195e+02
      3.480425645168e+02
      3.436623113730e+01
      4.838407158781e+01
     -1.386549217518e+02
     -4.583069951165e+02
      3.263701105976e+02
      6.606634602220e+01
      3.862024271761e+00
     -6.646195949771e+01
     -2.964796328409e+02
SCALARS sig21 double
LOOKUP_TABLE default
     -9.691938742320e+01
     -2.539266663662e+01
      1.368884999748e+01
     -5.496810022880e+00
      1.851726641450e+01
     -1.272311922637e+02
     -1.421816433918e+01
      7.654820816535e+00
     -3.726607574748e+00
      1.978748576775e+01
     -1.420627651654e+02
     -9.256224071576e+00
      5.393829768965e+00
     -3.617297226916e+00
      2.173172138261e+01
     -1.417685678443e+02
     -1.036012223874e+01
      6.823638182597e+00
     -5.125411744119e+00
      2.434792384955e+01
     -1.257132501283e+02
     -1.805008849009e+01
      1.230016608456e+01
     -8.484837050035e+00
      2.786238164719e+01
     -9.136024302351e+01
     -3.387811409045e+01
      2.288004910974e+01
     -1.439349204341e+01
      3.291902554865e+01
      3.290966451449e+02
      1.333836581607e+02
     -6.726838219647e+01
      3.227126985713e+01
      4.086018062060e+00
      2.975744201126e+02
      1.086344041954e+02
     -3.054760110221e+01
     -2.796321379694e+01
     -1.161190028195e+02
      3.480425645168e+02
      3.436623113730e+01
      4.838407158781e+01
     -1.386549217518e+02
     -4.583069951165e+02
      3.263701105976e+02
      6.606634602220e+01
      3.862024271761e+00
     -6.646195949771e+01
     -2.964796328409e+02
SCALARS sig22 double
LOOKUP_TABLE default
     -1.461926171801e+01
      1.756312356680e+01
     -2.228007361993e+00
     -1.253625492318e+00
      5.377710055031e-01
     -2.489281916404e+01
      3.712363506812e+01
     -1.837994151754e+01
      1.129447772745e+01
     -5.145352113992e+00
     -3.578554263439e+01
      5.736295133425e+01
     -3.438618543182e+01
      2.342695454341e+01
     -1.061817781148e+01
     -4.741648335081e+01
      7.882226444367e+01
     -5.121907374530e+01
      3.625959583149e+01
     -1.644630317904e+01
     -5.990928784304e+01
      1.020630398370e+02
     -6.988769470432e+01
      5.095442042267e+01
     -2.322047771236e+01
     -8.599229535074e+01
      1.325264081948e+02
     -9.459800401234e+01
      7.068268822108e+01
     -3.181473460209e+01
     -4.095164205475e+01
      1.139686654347e+02
     -8.397576141776e+01
      6.772958278916e+01
     -3.487154873917e+01
     -4.521987493397e+01
      4.053205400372e+01
     -1.666819330149e+01
      1.572167785034e+01
     -7.069066381978e+00
      2.649849901250e+01
      4.672981368195e+01
     -2.421814843995e+01
      4.917786135757e+01
     -2.577042836400e+01
     -6.302830697961e+01
      4.222953811674e+01
     -2.811636319595e-01
      3.514967642408e+01
     -4.218680899369e+01
