# vtk DataFile Version 3.0
truss_upper_top_growth_BCTipp_C1_05.vtk
ASCII
DATASET UNSTRUCTURED_GRID
FIELD FieldData 2
TIME 1 1 double
8.000000e-01
CYCLE 1 1 int
5
POINTS 72 double
      0.000000000000e+00       0.000000000000e+00       0.000000000000e+00
      4.000000000000e+00       0.000000000000e+00       0.000000000000e+00
      8.000000000000e+00       0.000000000000e+00       0.000000000000e+00
      1.200000000000e+01       0.000000000000e+00       0.000000000000e+00
      1.600000000000e+01       0.000000000000e+00       0.000000000000e+00
      2.000000000000e+01       0.000000000000e+00       0.000000000000e+00
      0.000000000000e+00       2.000000000000e-01       0.000000000000e+00
      4.000000000000e+00       2.000000000000e-01       0.000000000000e+00
      8.000000000000e+00       2.000000000000e-01       0.000000000000e+00
      1.200000000000e+01       2.000000000000e-01       0.000000000000e+00
      1.600000000000e+01       2.000000000000e-01       0.000000000000e+00
      2.000000000000e+01       2.000000000000e-01       0.000000000000e+00
      0.000000000000e+00       4.000000000000e-01       0.000000000000e+00
      4.000000000000e+00       4.000000000000e-01       0.000000000000e+00
      8.000000000000e+00       4.000000000000e-01       0.000000000000e+00
      1.200000000000e+01       4.000000000000e-01       0.000000000000e+00
      1.600000000000e+01       4.000000000000e-01       0.000000000000e+00
      2.000000000000e+01       4.000000000000e-01       0.000000000000e+00
      0.000000000000e+00       6.000000000000e-01       0.000000000000e+00
      4.000000000000e+00       6.000000000000e-01       0.000000000000e+00
      8.000000000000e+00       6.000000000000e-01       0.000000000000e+00
      1.200000000000e+01       6.000000000000e-01       0.000000000000e+00
      1.600000000000e+01       6.000000000000e-01       0.000000000000e+00
      2.000000000000e+01       6.000000000000e-01       0.000000000000e+00
      0.000000000000e+00       8.000000000000e-01       0.000000000000e+00
      4.000000000000e+00       8.000000000000e-01       0.000000000000e+00
      8.000000000000e+00       8.000000000000e-01       0.000000000000e+00
      1.200000000000e+01       8.000000000000e-01       0.000000000000e+00
      1.600000000000e+01       8.000000000000e-01       0.000000000000e+00
      2.000000000000e+01       8.000000000000e-01       0.000000000000e+00
      0.000000000000e+00       1.000000000000e+00       0.000000000000e+00
      4.000000000000e+00       1.000000000000e+00       0.000000000000e+00
      8.000000000000e+00       1.000000000000e+00       0.000000000000e+00
      1.200000000000e+01       1.000000000000e+00       0.000000000000e+00
      1.600000000000e+01       1.000000000000e+00       0.000000000000e+00
      2.000000000000e+01       1.000000000000e+00       0.000000000000e+00
      0.000000000000e+00       1.000000000000e+00       0.000000000000e+00
      4.000000000000e+00       1.000000000000e+00       0.000000000000e+00
      8.000000000000e+00       1.000000000000e+00       0.000000000000e+00
      1.200000000000e+01       1.000000000000e+00       0.000000000000e+00
      1.600000000000e+01       1.000000000000e+00       0.000000000000e+00
      2.000000000000e+01       1.000000000000e+00       0.000000000000e+00
      0.000000000000e+00       1.200000000000e+00       0.000000000000e+00
      4.000000000000e+00       1.200000000000e+00       0.000000000000e+00
      8.000000000000e+00       1.200000000000e+00       0.000000000000e+00
      1.200000000000e+01       1.200000000000e+00       0.000000000000e+00
      1.600000000000e+01       1.200000000000e+00       0.000000000000e+00
      2.000000000000e+01       1.200000000000e+00       0.000000000000e+00
      0.000000000000e+00       1.400000000000e+00       0.000000000000e+00
      4.000000000000e+00       1.400000000000e+00       0.000000000000e+00
      8.000000000000e+00       1.400000000000e+00       0.000000000000e+00
      1.200000000000e+01       1.400000000000e+00       0.000000000000e+00
      1.600000000000e+01       1.400000000000e+00       0.000000000000e+00
      2.000000000000e+01       1.400000000000e+00       0.000000000000e+00
      0.000000000000e+00       1.600000000000e+00       0.000000000000e+00
      4.000000000000e+00       1.600000000000e+00       0.000000000000e+00
      8.000000000000e+00       1.600000000000e+00       0.000000000000e+00
      1.200000000000e+01       1.600000000000e+00       0.000000000000e+00
      1.600000000000e+01       1.600000000000e+00       0.000000000000e+00
      2.000000000000e+01       1.600000000000e+00       0.000000000000e+00
      0.000000000000e+00       1.800000000000e+00       0.000000000000e+00
      4.000000000000e+00       1.800000000000e+00       0.000000000000e+00
      8.000000000000e+00       1.800000000000e+00       0.000000000000e+00
      1.200000000000e+01       1.800000000000e+00       0.000000000000e+00
      1.600000000000e+01       1.800000000000e+00       0.000000000000e+00
      2.000000000000e+01       1.800000000000e+00       0.000000000000e+00
      0.000000000000e+00       2.000000000000e+00       0.000000000000e+00
      4.000000000000e+00       2.000000000000e+00       0.000000000000e+00
      8.000000000000e+00       2.000000000000e+00       0.000000000000e+00
      1.200000000000e+01       2.000000000000e+00       0.000000000000e+00
      1.600000000000e+01       2.000000000000e+00       0.000000000000e+00
      2.000000000000e+01       2.000000000000e+00       0.000000000000e+00
CELLS 50 250
4         0        1        7        6
4         1        2        8        7
4         2        3        9        8
4         3        4       10        9
4         4        5       11       10
4         6        7       13       12
4         7        8       14       13
4         8        9       15       14
4         9       10       16       15
4        10       11       17       16
4        12       13       19       18
4        13       14       20       19
4        14       15       21       20
4        15       16       22       21
4        16       17       23       22
4        18       19       25       24
4        19       20       26       25
4        20       21       27       26
4        21       22       28       27
4        22       23       29       28
4        24       25       31       30
4        25       26       32       31
4        26       27       33       32
4        27       28       34       33
4        28       29       35       34
4        36       37       43       42
4        37       38       44       43
4        38       39       45       44
4        39       40       46       45
4        40       41       47       46
4        42       43       49       48
4        43       44       50       49
4        44       45       51       50
4        45       46       52       51
4        46       47       53       52
4        48       49       55       54
4        49       50       56       55
4        50       51       57       56
4        51       52       58       57
4        52       53       59       58
4        54       55       61       60
4        55       56       62       61
4        56       57       63       62
4        57       58       64       63
4        58       59       65       64
4        60       61       67       66
4        61       62       68       67
4        62       63       69       68
4        63       64       70       69
4        64       65       71       70
CELL_TYPES 50
9
9
9
9
9
9
9
9
9
9
9
9
9
9
9
9
9
9
9
9
9
9
9
9
9
9
9
9
9
9
9
9
9
9
9
9
9
9
9
9
9
9
9
9
9
9
9
9
9
9
POINT_DATA 72
VECTORS DSPL double
      0.000000000000e+00       0.000000000000e+00       0.000000000000e+00
      1.998415774643e-01      -1.768956450995e-03       0.000000000000e+00
      4.000812248306e-01      -1.924795766158e-03       0.000000000000e+00
      5.999187751694e-01      -1.924795766160e-03       0.000000000000e+00
      8.001584225357e-01      -1.768956451000e-03       0.000000000000e+00
      1.000000000000e+00      -6.648130714945e-15       0.000000000000e+00
      0.000000000000e+00      -4.254352716647e-03       0.000000000000e+00
      1.998916928177e-01      -6.063973908861e-03       0.000000000000e+00
      4.000703339349e-01      -6.208848139322e-03       0.000000000000e+00
      5.999296660651e-01      -6.208848139325e-03       0.000000000000e+00
      8.001083071823e-01      -6.063973908866e-03       0.000000000000e+00
      1.000000000000e+00      -4.254352716653e-03       0.000000000000e+00
      0.000000000000e+00      -8.499193649924e-03       0.000000000000e+00
      1.999388123503e-01      -1.036047607685e-02       0.000000000000e+00
      4.000633212442e-01      -1.049204637580e-02       0.000000000000e+00
      5.999366787558e-01      -1.049204637580e-02       0.000000000000e+00
      8.000611876497e-01      -1.036047607685e-02       0.000000000000e+00
      1.000000000000e+00      -8.499193649930e-03       0.000000000000e+00
      0.000000000000e+00      -1.273271703582e-02       0.000000000000e+00
      1.999844289563e-01      -1.465902218390e-02       0.000000000000e+00
      4.000584580807e-01      -1.477422836089e-02       0.000000000000e+00
      5.999415419193e-01      -1.477422836090e-02       0.000000000000e+00
      8.000155710437e-01      -1.465902218391e-02       0.000000000000e+00
      1.000000000000e+00      -1.273271703582e-02       0.000000000000e+00
      0.000000000000e+00      -1.695344708201e-02       0.000000000000e+00
      2.000300117045e-01      -1.896000207879e-02       0.000000000000e+00
      4.000540546271e-01      -1.905528153978e-02       0.000000000000e+00
      5.999459453729e-01      -1.905528153979e-02       0.000000000000e+00
      7.999699882955e-01      -1.896000207879e-02       0.000000000000e+00
      1.000000000000e+00      -1.695344708202e-02       0.000000000000e+00
      0.000000000000e+00      -2.116020682127e-02       0.000000000000e+00
      2.000770597871e-01      -2.326364305675e-02       0.000000000000e+00
      4.000483769224e-01      -2.333514110976e-02       0.000000000000e+00
      5.999516230776e-01      -2.333514110976e-02       0.000000000000e+00
      7.999229402129e-01      -2.326364305675e-02       0.000000000000e+00
      1.000000000000e+00      -2.116020682127e-02       0.000000000000e+00
      0.000000000000e+00      -2.116020682127e-02       0.000000000000e+00
      2.000770597871e-01      -2.326364305675e-02       0.000000000000e+00
      4.000483769224e-01      -2.333514110976e-02       0.000000000000e+00
      5.999516230776e-01      -2.333514110976e-02       0.000000000000e+00
      7.999229402129e-01      -2.326364305675e-02       0.000000000000e+00
      1.000000000000e+00      -2.116020682127e-02       0.000000000000e+00
      0.000000000000e+00      -2.535217230413e-02       0.000000000000e+00
      2.001271681434e-01      -2.757004462252e-02       0.000000000000e+00
      4.000395599280e-01      -2.761377985923e-02       0.000000000000e+00
      5.999604400720e-01      -2.761377985923e-02       0.000000000000e+00
      7.998728318566e-01      -2.757004462252e-02       0.000000000000e+00
      1.000000000000e+00      -2.535217230414e-02       0.000000000000e+00
      0.000000000000e+00      -2.952828784919e-02       0.000000000000e+00
      2.001818632874e-01      -3.187887959510e-02       0.000000000000e+00
      4.000257087281e-01      -3.189129997739e-02       0.000000000000e+00
      5.999742912719e-01      -3.189129997739e-02       0.000000000000e+00
      7.998181367126e-01      -3.187887959511e-02       0.000000000000e+00
      1.000000000000e+00      -2.952828784919e-02       0.000000000000e+00
      0.000000000000e+00      -3.369043318738e-02       0.000000000000e+00
      2.002439461244e-01      -3.619074252720e-02       0.000000000000e+00
      4.000037671995e-01      -3.616752389922e-02       0.000000000000e+00
      5.999962328005e-01      -3.616752389922e-02       0.000000000000e+00
      7.997560538756e-01      -3.619074252720e-02       0.000000000000e+00
      1.000000000000e+00      -3.369043318739e-02       0.000000000000e+00
      2.957924972841e-03      -3.782034247834e-02       0.000000000000e+00
      1.998183596910e-01      -4.049615471706e-02       0.000000000000e+00
      4.002422302861e-01      -4.044530123054e-02       0.000000000000e+00
      5.997577697139e-01      -4.044530123054e-02       0.000000000000e+00
      8.001816403090e-01      -4.049615471707e-02       0.000000000000e+00
      9.970420750272e-01      -3.782034247835e-02       0.000000000000e+00
      7.261861984215e-03      -4.169373966541e-02       0.000000000000e+00
      1.991923625735e-01      -4.481045813810e-02       0.000000000000e+00
      4.005863556000e-01      -4.472181572438e-02       0.000000000000e+00
      5.994136444001e-01      -4.472181572439e-02       0.000000000000e+00
      8.008076374265e-01      -4.481045813810e-02       0.000000000000e+00
      9.927381380158e-01      -4.169373966542e-02       0.000000000000e+00
CELL_DATA 50
SCALARS eps11 double
LOOKUP_TABLE default
      4.996673701126e-02
      5.005210861631e-02
      4.996230874487e-02
      5.005210861631e-02
      4.996673701126e-02
      4.997885974587e-02
      5.003778477776e-02
      4.996671095274e-02
      5.003778477776e-02
      4.997885974587e-02
      4.999042118542e-02
      5.002477404032e-02
      4.996960954853e-02
      5.002477404032e-02
      4.999042118542e-02
      5.000179047126e-02
      5.001228165252e-02
      4.997185575244e-02
      5.001228165252e-02
      5.000179047126e-02
      5.001333749220e-02
      4.999951150999e-02
      4.997430199562e-02
      4.999951150999e-02
      5.001333749220e-02
      5.002544560924e-02
      4.998563434977e-02
      4.997784008198e-02
      4.998563434977e-02
      5.002544560924e-02
      5.003852069478e-02
      4.996975979308e-02
      4.998343902429e-02
      4.996975979308e-02
      5.003852069478e-02
      5.005302659002e-02
      4.995087309212e-02
      4.999220063571e-02
      4.995087309212e-02
      5.005302659002e-02
      4.978181361859e-02
      4.999137693587e-02
      4.996063139559e-02
      4.999137693587e-02
      4.978181361859e-02
      4.851953518029e-02
      5.024606443761e-02
      4.977952794709e-02
      5.024606443761e-02
      4.851953518028e-02
SCALARS eps12 double
LOOKUP_TABLE default
     -8.012043281613e-05
     -4.279030612718e-06
      1.429198691902e-16
      4.279030612882e-06
      8.012043281622e-05
     -9.981652668839e-05
      4.428030599409e-06
      1.018557119073e-18
     -4.428030599446e-06
      9.981652668836e-05
     -1.144273718651e-04
      1.039738268911e-05
     -6.826026763686e-17
     -1.039738268908e-05
      1.144273718652e-04
     -1.243406315719e-04
      1.378243364142e-05
      6.230350843529e-17
     -1.378243364141e-05
      1.243406315718e-04
     -1.296120848246e-04
      1.454777648100e-05
     -3.457376732455e-17
     -1.454777648091e-05
      1.296120848246e-04
     -1.299318495063e-04
      1.246921881818e-05
      2.527334556370e-17
     -1.246921881818e-05
      1.299318495062e-04
     -1.255089614168e-04
      7.410738212276e-06
     -3.663417496875e-18
     -7.410738212286e-06
      1.255089614168e-04
     -1.112477320346e-04
     -2.502497623320e-06
     -1.220150960520e-16
      2.502497623271e-06
      1.112477320346e-04
      6.804052324806e-04
      2.463578795795e-04
      4.345279019415e-18
     -2.463578795795e-04
     -6.804052324808e-04
      1.091195344277e-03
      3.469299536279e-04
     -1.348137638850e-16
     -3.469299536278e-04
     -1.091195344276e-03
SCALARS eps21 double
LOOKUP_TABLE default
     -8.012043281613e-05
     -4.279030612718e-06
      1.429198691902e-16
      4.279030612882e-06
      8.012043281622e-05
     -9.981652668839e-05
      4.428030599409e-06
      1.018557119073e-18
     -4.428030599446e-06
      9.981652668836e-05
     -1.144273718651e-04
      1.039738268911e-05
     -6.826026763686e-17
     -1.039738268908e-05
      1.144273718652e-04
     -1.243406315719e-04
      1.378243364142e-05
      6.230350843529e-17
     -1.378243364141e-05
      1.243406315718e-04
     -1.296120848246e-04
      1.454777648100e-05
     -3.457376732455e-17
     -1.454777648091e-05
      1.296120848246e-04
     -1.299318495063e-04
      1.246921881818e-05
      2.527334556370e-17
     -1.246921881818e-05
      1.299318495062e-04
     -1.255089614168e-04
      7.410738212276e-06
     -3.663417496875e-18
     -7.410738212286e-06
      1.255089614168e-04
     -1.112477320346e-04
     -2.502497623320e-06
     -1.220150960520e-16
      2.502497623271e-06
      1.112477320346e-04
      6.804052324806e-04
      2.463578795795e-04
      4.345279019415e-18
     -2.463578795795e-04
     -6.804052324808e-04
      1.091195344277e-03
      3.469299536279e-04
     -1.348137638850e-16
     -3.469299536278e-04
     -1.091195344276e-03
SCALARS eps22 double
LOOKUP_TABLE default
     -2.141993340125e-02
     -2.144419146754e-02
     -2.141460740528e-02
     -2.144419146754e-02
     -2.141993340125e-02
     -2.143195515607e-02
     -2.142479124677e-02
     -2.142936433717e-02
     -2.142479124677e-02
     -2.143195515607e-02
     -2.144394742330e-02
     -2.140586890871e-02
     -2.144322447884e-02
     -2.140586890871e-02
     -2.144394742330e-02
     -2.145627615292e-02
     -2.138656185478e-02
     -2.145718112745e-02
     -2.138656185478e-02
     -2.145627615292e-02
     -2.146932039469e-02
     -2.136598497376e-02
     -2.147224640595e-02
     -2.136598497376e-02
     -2.146932039469e-02
     -2.148412401200e-02
     -2.134289348035e-02
     -2.148976537489e-02
     -2.134289348035e-02
     -2.148412401200e-02
     -2.149578919770e-02
     -2.131917005822e-02
     -2.150822254739e-02
     -2.131917005822e-02
     -2.149578919770e-02
     -2.152943904460e-02
     -2.128026260274e-02
     -2.154137496598e-02
     -2.128026260274e-02
     -2.152943904460e-02
     -2.137803810849e-02
     -2.133752086112e-02
     -2.148631054968e-02
     -2.133752086112e-02
     -2.137803810849e-02
     -2.086485242603e-02
     -2.148035651570e-02
     -2.134776996808e-02
     -2.148035651570e-02
     -2.086485242603e-02
SCALARS sig11 double
LOOKUP_TABLE default
      1.153010487765e+04
      1.155129981566e+04
      1.152949830570e+04
      1.155129981566e+04
      1.153010487765e+04
      1.153207539964e+04
      1.154960098805e+04
      1.152895491694e+04
      1.154960098805e+04
      1.153207539964e+04
      1.153389082036e+04
      1.154821546669e+04
      1.152809511821e+04
      1.154821546669e+04
      1.153389082036e+04
      1.153561115700e+04
      1.154702308859e+04
      1.152703920111e+04
      1.154702308859e+04
      1.153561115700e+04
      1.153729505094e+04
      1.154590603581e+04
      1.152590551881e+04
      1.154590603581e+04
      1.153729505094e+04
      1.153892440731e+04
      1.154478069260e+04
      1.152478321814e+04
      1.154478069260e+04
      1.153892440731e+04
      1.154120735130e+04
      1.154316726137e+04
      1.152412983863e+04
      1.154316726137e+04
      1.154120735130e+04
      1.154123124793e+04
      1.154254192417e+04
      1.152259013575e+04
      1.154254192417e+04
      1.154123124793e+04
      1.148290423288e+04
      1.154705499101e+04
      1.152033702024e+04
      1.154705499101e+04
      1.148290423288e+04
      1.118824224743e+04
      1.160174809969e+04
      1.148592519276e+04
      1.160174809969e+04
      1.118824224743e+04
SCALARS sig12 double
LOOKUP_TABLE default
     -1.294253145491e+01
     -6.912280220545e-01
      2.308736535284e-11
      6.912280220809e-01
      1.294253145493e+01
     -1.612420815736e+01
      7.152972506737e-01
      1.643130076445e-13
     -7.152972506797e-01
      1.612420815735e+01
     -1.848442160897e+01
      1.679577203625e+00
     -1.102645752482e-11
     -1.679577203620e+00
      1.848442160900e+01
     -2.008579433085e+01
      2.226393126692e+00
      1.006444927398e-11
     -2.226393126690e+00
      2.008579433083e+01
     -2.093733677935e+01
      2.350025431547e+00
     -5.584976925377e-12
     -2.350025431532e+00
      2.093733677936e+01
     -2.098899107409e+01
      2.014258424475e+00
      4.082567617303e-12
     -2.014258424476e+00
      2.098899107409e+01
     -2.027452453656e+01
      1.197119249675e+00
     -5.906386491006e-13
     -1.197119249677e+00
      2.027452453656e+01
     -1.797078748252e+01
     -4.042496160748e-01
     -1.971089957920e-11
      4.042496160668e-01
      1.797078748252e+01
      1.099116144776e+02
      3.979627285515e+01
      7.016609515631e-13
     -3.979627285515e+01
     -1.099116144777e+02
      1.762700171524e+02
      5.604253097066e+01
     -2.176925306685e-11
     -5.604253097064e+01
     -1.762700171523e+02
SCALARS sig21 double
LOOKUP_TABLE default
     -1.294253145491e+01
     -6.912280220545e-01
      2.308736535284e-11
      6.912280220809e-01
      1.294253145493e+01
     -1.612420815736e+01
      7.152972506737e-01
      1.643130076445e-13
     -7.152972506797e-01
      1.612420815735e+01
     -1.848442160897e+01
      1.679577203625e+00
     -1.102645752482e-11
     -1.679577203620e+00
      1.848442160900e+01
     -2.008579433085e+01
      2.226393126692e+00
      1.006444927398e-11
     -2.226393126690e+00
      2.008579433083e+01
     -2.093733677935e+01
      2.350025431547e+00
     -5.584976925377e-12
     -2.350025431532e+00
      2.093733677936e+01
     -2.098899107409e+01
      2.014258424475e+00
      4.082567617303e-12
     -2.014258424476e+00
      2.098899107409e+01
     -2.027452453656e+01
      1.197119249675e+00
     -5.906386491006e-13
     -1.197119249677e+00
      2.027452453656e+01
     -1.797078748252e+01
     -4.042496160748e-01
     -1.971089957920e-11
      4.042496160668e-01
      1.797078748252e+01
      1.099116144776e+02
      3.979627285515e+01
      7.016609515631e-13
     -3.979627285515e+01
     -1.099116144777e+02
      1.762700171524e+02
      5.604253097066e+01
     -2.176925306685e-11
     -5.604253097064e+01
     -1.762700171523e+02
SCALARS sig22 double
LOOKUP_TABLE default
     -1.588035144310e+00
      1.897494421969e+00
     -6.189185553185e-01
      1.897494421971e+00
     -1.588035144309e+00
     -3.517776832871e+00
      5.646399469185e+00
     -4.257245272633e+00
      5.646399469189e+00
     -3.517776832869e+00
     -5.507185660646e+00
      9.419297998717e+00
     -7.824224676144e+00
      9.419297998722e+00
     -5.507185660648e+00
     -7.614989980937e+00
      1.336375279923e+01
     -1.149752563659e+01
      1.336375279923e+01
     -7.614989980934e+00
     -9.903530791936e+00
      1.763352689847e+01
     -1.545999221306e+01
      1.763352689847e+01
     -9.903530791939e+00
     -1.262145457927e+01
      2.248004312317e+01
     -1.998381720082e+01
      2.248004312317e+01
     -1.262145457928e+01
     -1.433501594409e+01
      2.726320847283e+01
     -2.452318449230e+01
      2.726320847282e+01
     -1.433501594409e+01
     -2.209012381597e+01
      3.597385038651e+01
     -3.283361528870e+01
      3.597385038651e+01
     -2.209012381598e+01
     -1.214873841556e+01
      2.469457764587e+01
     -2.109206323090e+01
      2.469457764587e+01
     -1.214873841556e+01
     -2.000498128574e+01
      1.517240723295e+01
     -3.869085848596e+00
      1.517240723295e+01
     -2.000498128574e+01
