# vtk DataFile Version 3.0
truss_top_growth_BCTipp_03.vtk
ASCII
DATASET UNSTRUCTURED_GRID
FIELD FieldData 2
TIME 1 1 double
4.000000e-01
CYCLE 1 1 int
3
POINTS 72 double
      0.000000000000e+00       0.000000000000e+00       0.000000000000e+00
      4.000000000000e+00       0.000000000000e+00       0.000000000000e+00
      8.000000000000e+00       0.000000000000e+00       0.000000000000e+00
      1.200000000000e+01       0.000000000000e+00       0.000000000000e+00
      1.600000000000e+01       0.000000000000e+00       0.000000000000e+00
      2.000000000000e+01       0.000000000000e+00       0.000000000000e+00
      0.000000000000e+00       2.000000000000e-01       0.000000000000e+00
      4.000000000000e+00       2.000000000000e-01       0.000000000000e+00
      8.000000000000e+00       2.000000000000e-01       0.000000000000e+00
      1.200000000000e+01       2.000000000000e-01       0.000000000000e+00
      1.600000000000e+01       2.000000000000e-01       0.000000000000e+00
      2.000000000000e+01       2.000000000000e-01       0.000000000000e+00
      0.000000000000e+00       4.000000000000e-01       0.000000000000e+00
      4.000000000000e+00       4.000000000000e-01       0.000000000000e+00
      8.000000000000e+00       4.000000000000e-01       0.000000000000e+00
      1.200000000000e+01       4.000000000000e-01       0.000000000000e+00
      1.600000000000e+01       4.000000000000e-01       0.000000000000e+00
      2.000000000000e+01       4.000000000000e-01       0.000000000000e+00
      0.000000000000e+00       6.000000000000e-01       0.000000000000e+00
      4.000000000000e+00       6.000000000000e-01       0.000000000000e+00
      8.000000000000e+00       6.000000000000e-01       0.000000000000e+00
      1.200000000000e+01       6.000000000000e-01       0.000000000000e+00
      1.600000000000e+01       6.000000000000e-01       0.000000000000e+00
      2.000000000000e+01       6.000000000000e-01       0.000000000000e+00
      0.000000000000e+00       8.000000000000e-01       0.000000000000e+00
      4.000000000000e+00       8.000000000000e-01       0.000000000000e+00
      8.000000000000e+00       8.000000000000e-01       0.000000000000e+00
      1.200000000000e+01       8.000000000000e-01       0.000000000000e+00
      1.600000000000e+01       8.000000000000e-01       0.000000000000e+00
      2.000000000000e+01       8.000000000000e-01       0.000000000000e+00
      0.000000000000e+00       1.000000000000e+00       0.000000000000e+00
      4.000000000000e+00       1.000000000000e+00       0.000000000000e+00
      8.000000000000e+00       1.000000000000e+00       0.000000000000e+00
      1.200000000000e+01       1.000000000000e+00       0.000000000000e+00
      1.600000000000e+01       1.000000000000e+00       0.000000000000e+00
      2.000000000000e+01       1.000000000000e+00       0.000000000000e+00
      0.000000000000e+00       1.000000000000e+00       0.000000000000e+00
      4.000000000000e+00       1.000000000000e+00       0.000000000000e+00
      8.000000000000e+00       1.000000000000e+00       0.000000000000e+00
      1.200000000000e+01       1.000000000000e+00       0.000000000000e+00
      1.600000000000e+01       1.000000000000e+00       0.000000000000e+00
      2.000000000000e+01       1.000000000000e+00       0.000000000000e+00
      0.000000000000e+00       1.200000000000e+00       0.000000000000e+00
      4.000000000000e+00       1.200000000000e+00       0.000000000000e+00
      8.000000000000e+00       1.200000000000e+00       0.000000000000e+00
      1.200000000000e+01       1.200000000000e+00       0.000000000000e+00
      1.600000000000e+01       1.200000000000e+00       0.000000000000e+00
      2.000000000000e+01       1.200000000000e+00       0.000000000000e+00
      0.000000000000e+00       1.400000000000e+00       0.000000000000e+00
      4.000000000000e+00       1.400000000000e+00       0.000000000000e+00
      8.000000000000e+00       1.400000000000e+00       0.000000000000e+00
      1.200000000000e+01       1.400000000000e+00       0.000000000000e+00
      1.600000000000e+01       1.400000000000e+00       0.000000000000e+00
      2.000000000000e+01       1.400000000000e+00       0.000000000000e+00
      0.000000000000e+00       1.600000000000e+00       0.000000000000e+00
      4.000000000000e+00       1.600000000000e+00       0.000000000000e+00
      8.000000000000e+00       1.600000000000e+00       0.000000000000e+00
      1.200000000000e+01       1.600000000000e+00       0.000000000000e+00
      1.600000000000e+01       1.600000000000e+00       0.000000000000e+00
      2.000000000000e+01       1.600000000000e+00       0.000000000000e+00
      0.000000000000e+00       1.800000000000e+00       0.000000000000e+00
      4.000000000000e+00       1.800000000000e+00       0.000000000000e+00
      8.000000000000e+00       1.800000000000e+00       0.000000000000e+00
      1.200000000000e+01       1.800000000000e+00       0.000000000000e+00
      1.600000000000e+01       1.800000000000e+00       0.000000000000e+00
      2.000000000000e+01       1.800000000000e+00       0.000000000000e+00
      0.000000000000e+00       2.000000000000e+00       0.000000000000e+00
      4.000000000000e+00       2.000000000000e+00       0.000000000000e+00
      8.000000000000e+00       2.000000000000e+00       0.000000000000e+00
      1.200000000000e+01       2.000000000000e+00       0.000000000000e+00
      1.600000000000e+01       2.000000000000e+00       0.000000000000e+00
      2.000000000000e+01       2.000000000000e+00       0.000000000000e+00
CELLS 50 250
4         0        1        7        6
4         1        2        8        7
4         2        3        9        8
4         3        4       10        9
4         4        5       11       10
4         6        7       13       12
4         7        8       14       13
4         8        9       15       14
4         9       10       16       15
4        10       11       17       16
4        12       13       19       18
4        13       14       20       19
4        14       15       21       20
4        15       16       22       21
4        16       17       23       22
4        18       19       25       24
4        19       20       26       25
4        20       21       27       26
4        21       22       28       27
4        22       23       29       28
4        24       25       31       30
4        25       26       32       31
4        26       27       33       32
4        27       28       34       33
4        28       29       35       34
4        36       37       43       42
4        37       38       44       43
4        38       39       45       44
4        39       40       46       45
4        40       41       47       46
4        42       43       49       48
4        43       44       50       49
4        44       45       51       50
4        45       46       52       51
4        46       47       53       52
4        48       49       55       54
4        49       50       56       55
4        50       51       57       56
4        51       52       58       57
4        52       53       59       58
4        54       55       61       60
4        55       56       62       61
4        56       57       63       62
4        57       58       64       63
4        58       59       65       64
4        60       61       67       66
4        61       62       68       67
4        62       63       69       68
4        63       64       70       69
4        64       65       71       70
CELL_TYPES 50
9
9
9
9
9
9
9
9
9
9
9
9
9
9
9
9
9
9
9
9
9
9
9
9
9
9
9
9
9
9
9
9
9
9
9
9
9
9
9
9
9
9
9
9
9
9
9
9
9
9
POINT_DATA 72
VECTORS DSPL double
      0.000000000000e+00       0.000000000000e+00       0.000000000000e+00
      1.968278819778e-01      -3.292679303106e-02       0.000000000000e+00
      3.999127568436e-01      -4.719720270332e-02       0.000000000000e+00
      6.000872431563e-01      -4.719720270343e-02       0.000000000000e+00
      8.031721180222e-01      -3.292679303138e-02       0.000000000000e+00
      1.000000000000e+00      -4.199586354399e-13       0.000000000000e+00
      0.000000000000e+00      -3.951316982621e-03       0.000000000000e+00
      1.982946482303e-01      -3.729165268794e-02       0.000000000000e+00
      4.000732252688e-01      -5.149373640702e-02       0.000000000000e+00
      5.999267747312e-01      -5.149373640713e-02       0.000000000000e+00
      8.017053517697e-01      -3.729165268825e-02       0.000000000000e+00
      1.000000000000e+00      -3.951316983042e-03       0.000000000000e+00
      0.000000000000e+00      -7.882462566045e-03       0.000000000000e+00
      1.997297155984e-01      -4.166052009632e-02       0.000000000000e+00
      4.002594002517e-01      -5.576884424736e-02       0.000000000000e+00
      5.997405997483e-01      -5.576884424748e-02       0.000000000000e+00
      8.002702844016e-01      -4.166052009664e-02       0.000000000000e+00
      1.000000000000e+00      -7.882462566466e-03       0.000000000000e+00
      0.000000000000e+00      -1.178084013124e-02       0.000000000000e+00
      2.011630928182e-01      -4.603693477925e-02       0.000000000000e+00
      4.004471893170e-01      -6.002168273815e-02       0.000000000000e+00
      5.995528106830e-01      -6.002168273827e-02       0.000000000000e+00
      7.988369071818e-01      -4.603693477956e-02       0.000000000000e+00
      1.000000000000e+00      -1.178084013166e-02       0.000000000000e+00
      0.000000000000e+00      -1.564237970148e-02       0.000000000000e+00
      2.026249231784e-01      -5.042115930947e-02       0.000000000000e+00
      4.006122804231e-01      -6.425212580021e-02       0.000000000000e+00
      5.993877195769e-01      -6.425212580033e-02       0.000000000000e+00
      7.973750768216e-01      -5.042115930979e-02       0.000000000000e+00
      1.000000000000e+00      -1.564237970190e-02       0.000000000000e+00
      0.000000000000e+00      -1.947169993886e-02       0.000000000000e+00
      2.041463222432e-01      -5.481009164208e-02       0.000000000000e+00
      4.007289443220e-01      -6.846079460967e-02       0.000000000000e+00
      5.992710556780e-01      -6.846079460978e-02       0.000000000000e+00
      7.958536777568e-01      -5.481009164239e-02       0.000000000000e+00
      1.000000000000e+00      -1.947169993928e-02       0.000000000000e+00
      0.000000000000e+00      -1.947169993886e-02       0.000000000000e+00
      2.041463222432e-01      -5.481009164208e-02       0.000000000000e+00
      4.007289443220e-01      -6.846079460967e-02       0.000000000000e+00
      5.992710556780e-01      -6.846079460978e-02       0.000000000000e+00
      7.958536777568e-01      -5.481009164239e-02       0.000000000000e+00
      1.000000000000e+00      -1.947169993928e-02       0.000000000000e+00
      9.595368610030e-03      -2.322951598668e-02       0.000000000000e+00
      2.041530942479e-01      -5.917095954861e-02       0.000000000000e+00
      4.016443599103e-01      -7.265692582499e-02       0.000000000000e+00
      5.983556400897e-01      -7.265692582510e-02       0.000000000000e+00
      7.958469057522e-01      -5.917095954893e-02       0.000000000000e+00
      9.904046313900e-01      -2.322951598711e-02       0.000000000000e+00
      1.902834400409e-02      -2.679717051381e-02       0.000000000000e+00
      2.041698829491e-01      -6.344003570499e-02       0.000000000000e+00
      4.025456772186e-01      -7.685943033840e-02       0.000000000000e+00
      5.974543227814e-01      -7.685943033851e-02       0.000000000000e+00
      7.958301170509e-01      -6.344003570531e-02       0.000000000000e+00
      9.809716559959e-01      -2.679717051423e-02       0.000000000000e+00
      3.048617954733e-02      -2.926023027260e-02       0.000000000000e+00
      2.043887800956e-01      -6.783597721236e-02       0.000000000000e+00
      4.033412906551e-01      -8.101391155187e-02       0.000000000000e+00
      5.966587093450e-01      -8.101391155198e-02       0.000000000000e+00
      7.956112199045e-01      -6.783597721269e-02       0.000000000000e+00
      9.695138204527e-01      -2.926023027296e-02       0.000000000000e+00
      4.598212380416e-02      -3.095353462604e-02       0.000000000000e+00
      2.041925497015e-01      -7.223531857208e-02       0.000000000000e+00
      4.043528308183e-01      -8.514778169976e-02       0.000000000000e+00
      5.956471691818e-01      -8.514778169985e-02       0.000000000000e+00
      7.958074502986e-01      -7.223531857244e-02       0.000000000000e+00
      9.540178761958e-01      -3.095353462631e-02       0.000000000000e+00
      5.232865185691e-02      -3.274985181337e-02       0.000000000000e+00
      2.050341065636e-01      -7.646625024200e-02       0.000000000000e+00
      4.047937380793e-01      -8.930215340011e-02       0.000000000000e+00
      5.952062619208e-01      -8.930215340019e-02       0.000000000000e+00
      7.949658934365e-01      -7.646625024237e-02       0.000000000000e+00
      9.476713481430e-01      -3.274985181354e-02       0.000000000000e+00
CELL_DATA 50
SCALARS eps11 double
LOOKUP_TABLE default
      4.939129059506e-02
      5.060616889780e-02
      5.000508101428e-02
      5.060616889780e-02
      4.939129059506e-02
      4.975339194640e-02
      5.028790340830e-02
      4.991740929061e-02
      5.028790340830e-02
      4.975339194640e-02
      5.011132500711e-02
      4.997721427092e-02
      4.982292144395e-02
      4.997721427092e-02
      5.011132500711e-02
      5.047259249704e-02
      4.966057138684e-02
      4.973367223224e-02
      4.966057138684e-02
      5.047259249704e-02
      5.084483315087e-02
      4.932410757620e-02
      4.966211854585e-02
      4.932410757620e-02
      5.084483315087e-02
      5.030295634117e-02
      4.915916445825e-02
      4.947653029950e-02
      4.915916445825e-02
      5.030295634116e-02
      4.699027397046e-02
      4.958445879160e-02
      4.888145950353e-02
      4.958445879159e-02
      4.699027397045e-02
      4.542859952673e-02
      4.957778731672e-02
      4.859048058985e-02
      4.957778731672e-02
      4.542859952672e-02
      4.115159772622e-02
      4.995105581863e-02
      4.803224096731e-02
      4.995105581863e-02
      4.115159772619e-02
      3.880254884413e-02
      4.999504972658e-02
      4.771003369812e-02
      4.999504972658e-02
      3.880254884409e-02
SCALARS eps12 double
LOOKUP_TABLE default
     -7.420917174338e-04
     -1.562857919492e-04
      1.737857497882e-16
      1.562857919490e-04
      7.420917174334e-04
     -9.171546354768e-04
     -1.083721998877e-04
     -1.469432756897e-16
      1.083721998873e-04
      9.171546354763e-04
     -9.812014947856e-04
     -9.218586816009e-05
     -2.241926804793e-16
      9.218586815981e-05
      9.812014947850e-04
     -9.347971629622e-04
     -1.078691565320e-04
     -1.120624589217e-16
      1.078691565314e-04
      9.347971629612e-04
     -7.729544823627e-04
     -1.583570139082e-04
     -7.811337839579e-17
      1.583570139079e-04
      7.729544823621e-04
      2.033332792856e-03
      5.991889910215e-04
     -3.910962875710e-17
     -5.991889910216e-04
     -2.033332792856e-03
      1.865174516938e-03
      5.866953926730e-04
     -9.812029660994e-17
     -5.866953926729e-04
     -1.865174516937e-03
      4.092804172789e-03
      5.044747110898e-04
      8.595520942147e-15
     -5.044747111001e-04
     -4.092804172778e-03
      5.737271671231e-03
      7.388151184214e-04
      1.204013288809e-14
     -7.388151184329e-04
     -5.737271671214e-03
      1.348222335054e-03
      1.940884151665e-04
      5.307504212331e-15
     -1.940884151664e-04
     -1.348222335044e-03
SCALARS eps21 double
LOOKUP_TABLE default
     -7.420917174338e-04
     -1.562857919492e-04
      1.737857497882e-16
      1.562857919490e-04
      7.420917174334e-04
     -9.171546354768e-04
     -1.083721998877e-04
     -1.469432756897e-16
      1.083721998873e-04
      9.171546354763e-04
     -9.812014947856e-04
     -9.218586816009e-05
     -2.241926804793e-16
      9.218586815981e-05
      9.812014947850e-04
     -9.347971629622e-04
     -1.078691565320e-04
     -1.120624589217e-16
      1.078691565314e-04
      9.347971629612e-04
     -7.729544823627e-04
     -1.583570139082e-04
     -7.811337839579e-17
      1.583570139079e-04
      7.729544823621e-04
      2.033332792856e-03
      5.991889910215e-04
     -3.910962875710e-17
     -5.991889910216e-04
     -2.033332792856e-03
      1.865174516938e-03
      5.866953926730e-04
     -9.812029660994e-17
     -5.866953926729e-04
     -1.865174516937e-03
      4.092804172789e-03
      5.044747110898e-04
      8.595520942147e-15
     -5.044747111001e-04
     -4.092804172778e-03
      5.737271671231e-03
      7.388151184214e-04
      1.204013288809e-14
     -7.388151184329e-04
     -5.737271671214e-03
      1.348222335054e-03
      1.940884151665e-04
      5.307504212331e-15
     -1.940884151664e-04
     -1.348222335044e-03
SCALARS eps22 double
LOOKUP_TABLE default
     -2.121816132753e-02
     -2.162732086218e-02
     -2.145189276344e-02
     -2.162732086218e-02
     -2.121816132753e-02
     -2.143264103048e-02
     -2.137023073169e-02
     -2.153711361851e-02
     -2.137023073169e-02
     -2.143264103049e-02
     -2.164705393522e-02
     -2.111440404428e-02
     -2.161994118386e-02
     -2.111440404428e-02
     -2.164705393522e-02
     -2.186732281999e-02
     -2.084747843533e-02
     -2.171325463221e-02
     -2.084747843533e-02
     -2.186732281999e-02
     -2.209953254768e-02
     -2.055666474774e-02
     -2.183046255203e-02
     -2.055666474774e-02
     -2.209953254767e-02
     -2.180617089710e-02
     -2.052286058506e-02
     -2.171301272021e-02
     -2.052286058506e-02
     -2.180617089710e-02
     -2.026716696435e-02
     -2.114360581241e-02
     -2.099239205997e-02
     -2.114360581241e-02
     -2.026716696435e-02
     -1.945755292686e-02
     -2.087795874268e-02
     -2.106928721516e-02
     -2.087795874266e-02
     -1.945755292686e-02
     -1.811506954270e-02
     -2.092583035768e-02
     -2.085532314090e-02
     -2.092583035765e-02
     -1.811506954269e-02
     -1.668862266961e-02
     -2.143540327594e-02
     -2.023591367681e-02
     -2.143540327591e-02
     -1.668862266959e-02
SCALARS sig11 double
LOOKUP_TABLE default
      1.139187606508e+04
      1.168574156473e+04
      1.153707243270e+04
      1.168574156473e+04
      1.139187606508e+04
      1.146825429077e+04
      1.162691781716e+04
      1.150196347645e+04
      1.162691781716e+04
      1.146825429077e+04
      1.154346226563e+04
      1.157008277507e+04
      1.146521761092e+04
      1.157008277507e+04
      1.154346226563e+04
      1.161890338347e+04
      1.151290933162e+04
      1.142868226214e+04
      1.151290933162e+04
      1.161890338347e+04
      1.169599985130e+04
      1.145302679730e+04
      1.139425439512e+04
      1.145302679730e+04
      1.169599985130e+04
      1.157835733776e+04
      1.141049415097e+04
      1.135601952433e+04
      1.141049415097e+04
      1.157835733776e+04
      1.082834375943e+04
      1.145551591574e+04
      1.127510355239e+04
      1.145551591574e+04
      1.082834375943e+04
      1.048495826161e+04
      1.148581410533e+04
      1.118352990799e+04
      1.148581410533e+04
      1.048495826161e+04
      9.438529778008e+03
      1.158553440924e+04
      1.105164243138e+04
      1.158553440924e+04
      9.438529778002e+03
      8.947291253658e+03
      1.153623442966e+04
      1.103560075382e+04
      1.153623442966e+04
      8.947291253649e+03
SCALARS sig12 double
LOOKUP_TABLE default
     -1.198763543547e+02
     -2.524616639179e+01
      2.807087895462e-11
      2.524616639175e+01
      1.198763543546e+02
     -1.481557488078e+02
     -1.750627844340e+01
     -2.373767848951e-11
      1.750627844334e+01
      1.481557488077e+02
     -1.585017799269e+02
     -1.489156331817e+01
     -3.621769550932e-11
      1.489156331812e+01
      1.585017799268e+02
     -1.510056955554e+02
     -1.742501759364e+01
     -1.810107619349e-11
      1.742501759354e+01
      1.510056955553e+02
     -1.248618779201e+02
     -2.558074840056e+01
     -1.262101534394e-11
      2.558074840050e+01
      1.248618779200e+02
      3.284614511536e+02
      9.679206778040e+01
     -6.324940571290e-12
     -9.679206778041e+01
     -3.284614511537e+02
      3.012974219668e+02
      9.477387112410e+01
     -1.584510300745e-11
     -9.477387112409e+01
     -3.012974219668e+02
      6.611452894505e+02
      8.149206871450e+01
      1.388501535970e-09
     -8.149206871617e+01
     -6.611452894487e+02
      9.267900391989e+02
      1.193470575911e+02
      1.944941985244e-09
     -1.193470575930e+02
     -9.267900391961e+02
      2.177897618164e+02
      3.135274398844e+01
      8.573664000977e-10
     -3.135274398842e+01
     -2.177897618149e+02
SCALARS sig21 double
LOOKUP_TABLE default
     -1.198763543547e+02
     -2.524616639179e+01
      2.807087895462e-11
      2.524616639175e+01
      1.198763543546e+02
     -1.481557488078e+02
     -1.750627844340e+01
     -2.373767848951e-11
      1.750627844334e+01
      1.481557488077e+02
     -1.585017799269e+02
     -1.489156331817e+01
     -3.621769550932e-11
      1.489156331812e+01
      1.585017799268e+02
     -1.510056955554e+02
     -1.742501759364e+01
     -1.810107619349e-11
      1.742501759354e+01
      1.510056955553e+02
     -1.248618779201e+02
     -2.558074840056e+01
     -1.262101534394e-11
      2.558074840050e+01
      1.248618779200e+02
      3.284614511536e+02
      9.679206778040e+01
     -6.324940571290e-12
     -9.679206778041e+01
     -3.284614511537e+02
      3.012974219668e+02
      9.477387112410e+01
     -1.584510300745e-11
     -9.477387112409e+01
     -3.012974219668e+02
      6.611452894505e+02
      8.149206871450e+01
      1.388501535970e-09
     -8.149206871617e+01
     -6.611452894487e+02
      9.267900391989e+02
      1.193470575911e+02
      1.944941985244e-09
     -1.193470575930e+02
     -9.267900391961e+02
      2.177897618164e+02
      3.135274398844e+01
      8.573664000977e-10
     -3.135274398842e+01
     -2.177897618149e+02
SCALARS sig22 double
LOOKUP_TABLE default
     -1.426616857285e+01
      1.725475734831e+01
     -5.977177551001e+00
      1.725475734831e+01
     -1.426616857284e+01
     -3.102795934252e+01
      5.137307146970e+01
     -4.069022425442e+01
      5.137307146969e+01
     -3.102795934249e+01
     -4.827587121080e+01
      8.605212415089e+01
     -7.555250588022e+01
      8.605212415086e+01
     -4.827587121079e+01
     -6.677524466522e+01
      1.231474372649e+02
     -1.127443851994e+02
      1.231474372649e+02
     -6.677524466522e+01
     -8.732076154456e+01
      1.645943449676e+02
     -1.545471668462e+02
      1.645943449676e+02
     -8.732076154455e+01
     -7.004013919396e+01
      1.541670285873e+02
     -1.438297326958e+02
      1.541670285873e+02
     -7.004013919395e+01
     -3.631977619350e+01
      3.021317201219e+01
     -1.221093094827e+01
      3.021317201218e+01
     -3.631977619350e+01
      3.349019106173e+00
      1.045012803461e+02
     -6.920181436243e+01
      1.045012803508e+02
      3.349019106140e+00
     -1.353164731244e+02
      1.361912576816e+02
     -7.634869379085e+01
      1.361912576899e+02
     -1.353164731247e+02
     -1.666722163800e+01
     -2.531055362602e+00
      5.971694709656e+01
     -2.531055355000e+00
     -1.666722163827e+01
