# vtk DataFile Version 3.0
truss_top_growth_BCTipp_04.vtk
ASCII
DATASET UNSTRUCTURED_GRID
FIELD FieldData 2
TIME 1 1 double
6.000000e-01
CYCLE 1 1 int
4
POINTS 72 double
      0.000000000000e+00       0.000000000000e+00       0.000000000000e+00
      4.000000000000e+00       0.000000000000e+00       0.000000000000e+00
      8.000000000000e+00       0.000000000000e+00       0.000000000000e+00
      1.200000000000e+01       0.000000000000e+00       0.000000000000e+00
      1.600000000000e+01       0.000000000000e+00       0.000000000000e+00
      2.000000000000e+01       0.000000000000e+00       0.000000000000e+00
      0.000000000000e+00       2.000000000000e-01       0.000000000000e+00
      4.000000000000e+00       2.000000000000e-01       0.000000000000e+00
      8.000000000000e+00       2.000000000000e-01       0.000000000000e+00
      1.200000000000e+01       2.000000000000e-01       0.000000000000e+00
      1.600000000000e+01       2.000000000000e-01       0.000000000000e+00
      2.000000000000e+01       2.000000000000e-01       0.000000000000e+00
      0.000000000000e+00       4.000000000000e-01       0.000000000000e+00
      4.000000000000e+00       4.000000000000e-01       0.000000000000e+00
      8.000000000000e+00       4.000000000000e-01       0.000000000000e+00
      1.200000000000e+01       4.000000000000e-01       0.000000000000e+00
      1.600000000000e+01       4.000000000000e-01       0.000000000000e+00
      2.000000000000e+01       4.000000000000e-01       0.000000000000e+00
      0.000000000000e+00       6.000000000000e-01       0.000000000000e+00
      4.000000000000e+00       6.000000000000e-01       0.000000000000e+00
      8.000000000000e+00       6.000000000000e-01       0.000000000000e+00
      1.200000000000e+01       6.000000000000e-01       0.000000000000e+00
      1.600000000000e+01       6.000000000000e-01       0.000000000000e+00
      2.000000000000e+01       6.000000000000e-01       0.000000000000e+00
      0.000000000000e+00       8.000000000000e-01       0.000000000000e+00
      4.000000000000e+00       8.000000000000e-01       0.000000000000e+00
      8.000000000000e+00       8.000000000000e-01       0.000000000000e+00
      1.200000000000e+01       8.000000000000e-01       0.000000000000e+00
      1.600000000000e+01       8.000000000000e-01       0.000000000000e+00
      2.000000000000e+01       8.000000000000e-01       0.000000000000e+00
      0.000000000000e+00       1.000000000000e+00       0.000000000000e+00
      4.000000000000e+00       1.000000000000e+00       0.000000000000e+00
      8.000000000000e+00       1.000000000000e+00       0.000000000000e+00
      1.200000000000e+01       1.000000000000e+00       0.000000000000e+00
      1.600000000000e+01       1.000000000000e+00       0.000000000000e+00
      2.000000000000e+01       1.000000000000e+00       0.000000000000e+00
      0.000000000000e+00       1.000000000000e+00       0.000000000000e+00
      4.000000000000e+00       1.000000000000e+00       0.000000000000e+00
      8.000000000000e+00       1.000000000000e+00       0.000000000000e+00
      1.200000000000e+01       1.000000000000e+00       0.000000000000e+00
      1.600000000000e+01       1.000000000000e+00       0.000000000000e+00
      2.000000000000e+01       1.000000000000e+00       0.000000000000e+00
      0.000000000000e+00       1.200000000000e+00       0.000000000000e+00
      4.000000000000e+00       1.200000000000e+00       0.000000000000e+00
      8.000000000000e+00       1.200000000000e+00       0.000000000000e+00
      1.200000000000e+01       1.200000000000e+00       0.000000000000e+00
      1.600000000000e+01       1.200000000000e+00       0.000000000000e+00
      2.000000000000e+01       1.200000000000e+00       0.000000000000e+00
      0.000000000000e+00       1.400000000000e+00       0.000000000000e+00
      4.000000000000e+00       1.400000000000e+00       0.000000000000e+00
      8.000000000000e+00       1.400000000000e+00       0.000000000000e+00
      1.200000000000e+01       1.400000000000e+00       0.000000000000e+00
      1.600000000000e+01       1.400000000000e+00       0.000000000000e+00
      2.000000000000e+01       1.400000000000e+00       0.000000000000e+00
      0.000000000000e+00       1.600000000000e+00       0.000000000000e+00
      4.000000000000e+00       1.600000000000e+00       0.000000000000e+00
      8.000000000000e+00       1.600000000000e+00       0.000000000000e+00
      1.200000000000e+01       1.600000000000e+00       0.000000000000e+00
      1.600000000000e+01       1.600000000000e+00       0.000000000000e+00
      2.000000000000e+01       1.600000000000e+00       0.000000000000e+00
      0.000000000000e+00       1.800000000000e+00       0.000000000000e+00
      4.000000000000e+00       1.800000000000e+00       0.000000000000e+00
      8.000000000000e+00       1.800000000000e+00       0.000000000000e+00
      1.200000000000e+01       1.800000000000e+00       0.000000000000e+00
      1.600000000000e+01       1.800000000000e+00       0.000000000000e+00
      2.000000000000e+01       1.800000000000e+00       0.000000000000e+00
      0.000000000000e+00       2.000000000000e+00       0.000000000000e+00
      4.000000000000e+00       2.000000000000e+00       0.000000000000e+00
      8.000000000000e+00       2.000000000000e+00       0.000000000000e+00
      1.200000000000e+01       2.000000000000e+00       0.000000000000e+00
      1.600000000000e+01       2.000000000000e+00       0.000000000000e+00
      2.000000000000e+01       2.000000000000e+00       0.000000000000e+00
CELLS 50 250
4         0        1        7        6
4         1        2        8        7
4         2        3        9        8
4         3        4       10        9
4         4        5       11       10
4         6        7       13       12
4         7        8       14       13
4         8        9       15       14
4         9       10       16       15
4        10       11       17       16
4        12       13       19       18
4        13       14       20       19
4        14       15       21       20
4        15       16       22       21
4        16       17       23       22
4        18       19       25       24
4        19       20       26       25
4        20       21       27       26
4        21       22       28       27
4        22       23       29       28
4        24       25       31       30
4        25       26       32       31
4        26       27       33       32
4        27       28       34       33
4        28       29       35       34
4        36       37       43       42
4        37       38       44       43
4        38       39       45       44
4        39       40       46       45
4        40       41       47       46
4        42       43       49       48
4        43       44       50       49
4        44       45       51       50
4        45       46       52       51
4        46       47       53       52
4        48       49       55       54
4        49       50       56       55
4        50       51       57       56
4        51       52       58       57
4        52       53       59       58
4        54       55       61       60
4        55       56       62       61
4        56       57       63       62
4        57       58       64       63
4        58       59       65       64
4        60       61       67       66
4        61       62       68       67
4        62       63       69       68
4        63       64       70       69
4        64       65       71       70
CELL_TYPES 50
9
9
9
9
9
9
9
9
9
9
9
9
9
9
9
9
9
9
9
9
9
9
9
9
9
9
9
9
9
9
9
9
9
9
9
9
9
9
9
9
9
9
9
9
9
9
9
9
9
9
POINT_DATA 72
VECTORS DSPL double
      0.000000000000e+00       0.000000000000e+00       0.000000000000e+00
      1.972214991596e-01      -2.527379879602e-02       0.000000000000e+00
      3.999476914273e-01      -3.593736198360e-02       0.000000000000e+00
      6.000523085727e-01      -3.593736198364e-02       0.000000000000e+00
      8.027785008404e-01      -2.527379879611e-02       0.000000000000e+00
      1.000000000000e+00      -1.125835542632e-13       0.000000000000e+00
      0.000000000000e+00      -3.987575392523e-03       0.000000000000e+00
      1.983296227137e-01      -2.963065521954e-02       0.000000000000e+00
      4.000646270944e-01      -4.023304551011e-02       0.000000000000e+00
      5.999353729056e-01      -4.023304551015e-02       0.000000000000e+00
      8.016703772863e-01      -2.963065521963e-02       0.000000000000e+00
      1.000000000000e+00      -3.987575392636e-03       0.000000000000e+00
      0.000000000000e+00      -7.952309870881e-03       0.000000000000e+00
      1.994061385878e-01      -3.399221205615e-02       0.000000000000e+00
      4.002075473860e-01      -4.451220272362e-02       0.000000000000e+00
      5.997924526140e-01      -4.451220272366e-02       0.000000000000e+00
      8.005938614122e-01      -3.399221205624e-02       0.000000000000e+00
      1.000000000000e+00      -7.952309870994e-03       0.000000000000e+00
      0.000000000000e+00      -1.188121853760e-02       0.000000000000e+00
      2.004738032730e-01      -3.836227091456e-02       0.000000000000e+00
      4.003580557041e-01      -4.877393001512e-02       0.000000000000e+00
      5.996419442959e-01      -4.877393001516e-02       0.000000000000e+00
      7.995261967270e-01      -3.836227091465e-02       0.000000000000e+00
      1.000000000000e+00      -1.188121853771e-02       0.000000000000e+00
      0.000000000000e+00      -1.576757028250e-02       0.000000000000e+00
      2.015553170466e-01      -4.274219527819e-02       0.000000000000e+00
      4.004978120983e-01      -5.301785780997e-02       0.000000000000e+00
      5.995021879017e-01      -5.301785781001e-02       0.000000000000e+00
      7.984446829534e-01      -4.274219527828e-02       0.000000000000e+00
      1.000000000000e+00      -1.576757028262e-02       0.000000000000e+00
      0.000000000000e+00      -1.961086443568e-02       0.000000000000e+00
      2.026739635354e-01      -4.713089070071e-02       0.000000000000e+00
      4.006076175010e-01      -5.724415933271e-02       0.000000000000e+00
      5.993923824990e-01      -5.724415933275e-02       0.000000000000e+00
      7.973260364646e-01      -4.713089070080e-02       0.000000000000e+00
      1.000000000000e+00      -1.961086443579e-02       0.000000000000e+00
      0.000000000000e+00      -1.961086443568e-02       0.000000000000e+00
      2.026739635354e-01      -4.713089070071e-02       0.000000000000e+00
      4.006076175010e-01      -5.724415933271e-02       0.000000000000e+00
      5.993923824990e-01      -5.724415933275e-02       0.000000000000e+00
      7.973260364646e-01      -4.713089070080e-02       0.000000000000e+00
      1.000000000000e+00      -1.961086443579e-02       0.000000000000e+00
      0.000000000000e+00      -2.342134994388e-02       0.000000000000e+00
      2.038555533918e-01      -5.152709031180e-02       0.000000000000e+00
      4.006655697802e-01      -6.145288135944e-02       0.000000000000e+00
      5.993344302198e-01      -6.145288135947e-02       0.000000000000e+00
      7.961444466082e-01      -5.152709031190e-02       0.000000000000e+00
      1.000000000000e+00      -2.342134994399e-02       0.000000000000e+00
      9.315432607196e-03      -2.714626065834e-02       0.000000000000e+00
      2.035614593470e-01      -5.589131583827e-02       0.000000000000e+00
      4.015016249380e-01      -6.565528664234e-02       0.000000000000e+00
      5.984983750621e-01      -6.565528664238e-02       0.000000000000e+00
      7.964385406530e-01      -5.589131583836e-02       0.000000000000e+00
      9.906845673928e-01      -2.714626065845e-02       0.000000000000e+00
      1.832097372169e-02      -3.068604737795e-02       0.000000000000e+00
      2.032973597544e-01      -6.017139960275e-02       0.000000000000e+00
      4.023124075851e-01      -6.986693158678e-02       0.000000000000e+00
      5.976875924149e-01      -6.986693158682e-02       0.000000000000e+00
      7.967026402456e-01      -6.017139960284e-02       0.000000000000e+00
      9.816790262783e-01      -3.068604737807e-02       0.000000000000e+00
      2.614833454579e-02      -3.366019282830e-02       0.000000000000e+00
      2.034151305746e-01      -6.448107295941e-02       0.000000000000e+00
      4.029118431267e-01      -7.405841803199e-02       0.000000000000e+00
      5.970881568733e-01      -7.405841803202e-02       0.000000000000e+00
      7.965848694255e-01      -6.448107295950e-02       0.000000000000e+00
      9.738516654542e-01      -3.366019282844e-02       0.000000000000e+00
      3.437689289130e-02      -3.623747894962e-02       0.000000000000e+00
      2.034722324874e-01      -6.877732015506e-02       0.000000000000e+00
      4.035412197024e-01      -7.823938941714e-02       0.000000000000e+00
      5.964587802976e-01      -7.823938941718e-02       0.000000000000e+00
      7.965277675127e-01      -6.877732015513e-02       0.000000000000e+00
      9.656231071087e-01      -3.623747894981e-02       0.000000000000e+00
CELL_DATA 50
SCALARS eps11 double
LOOKUP_TABLE default
      4.944478765721e-02
      5.055601661718e-02
      4.999839145121e-02
      5.055601661718e-02
      4.944478765721e-02
      4.971738972631e-02
      5.031628493187e-02
      4.993265068363e-02
      5.031628493187e-02
      4.971738972632e-02
      4.998494196850e-02
      5.008578940187e-02
      4.985853725926e-02
      5.008578940187e-02
      4.998494196850e-02
      5.025311375869e-02
      4.985428672934e-02
      4.978519902394e-02
      4.985428672934e-02
      5.025311375869e-02
      5.052763915754e-02
      4.961137048762e-02
      4.972198070967e-02
      4.961137048762e-02
      5.052763915754e-02
      5.081449112137e-02
      4.934607945122e-02
      4.967885885482e-02
      4.934607945122e-02
      5.081449112137e-02
      5.021402586550e-02
      4.924674430795e-02
      4.952588755190e-02
      4.924674430795e-02
      5.021402586550e-02
      4.693731133315e-02
      4.971873290728e-02
      4.897669959525e-02
      4.971873290728e-02
      4.693731133315e-02
      4.568088590848e-02
      4.973935621487e-02
      4.874611733723e-02
      4.973935621487e-02
      4.568088590847e-02
      4.291402323685e-02
      5.001655088965e-02
      4.833704936374e-02
      5.001655088965e-02
      4.291402323685e-02
SCALARS eps12 double
LOOKUP_TABLE default
     -6.067133422123e-04
     -1.135350649987e-04
     -1.949869844579e-17
      1.135350649989e-04
      6.067133422122e-04
     -7.766988641538e-04
     -6.600530701303e-05
     -3.138257069577e-17
      6.600530701301e-05
      7.766988641536e-04
     -8.637199599429e-04
     -4.252320522731e-05
     -1.832132264911e-16
      4.252320522715e-05
      8.637199599429e-04
     -8.695557753984e-04
     -4.259503180347e-05
      7.267542687442e-18
      4.259503180334e-05
      8.695557753982e-04
     -7.917956728617e-04
     -6.784933473125e-05
     -1.599198204416e-16
      6.784933473125e-05
      7.917956728616e-04
     -6.190056307302e-04
     -1.232829229648e-04
     -1.425387043640e-16
      1.232829229647e-04
      6.190056307300e-04
      2.081924816151e-03
      6.153645405534e-04
      2.156122367236e-17
     -6.153645405534e-04
     -2.081924816151e-03
      1.854868128843e-03
      5.916850137077e-04
     -2.229390717173e-17
     -5.916850137078e-04
     -1.854868128843e-03
      2.060225232186e-03
      3.901096554878e-04
     -3.085181985102e-15
     -3.901096554820e-04
     -2.060225232191e-03
      1.987672631185e-03
      4.331903512026e-04
     -3.723827886673e-15
     -4.331903511962e-04
     -1.987672631192e-03
SCALARS eps21 double
LOOKUP_TABLE default
     -6.067133422123e-04
     -1.135350649987e-04
     -1.949869844579e-17
      1.135350649989e-04
      6.067133422122e-04
     -7.766988641538e-04
     -6.600530701303e-05
     -3.138257069577e-17
      6.600530701301e-05
      7.766988641536e-04
     -8.637199599429e-04
     -4.252320522731e-05
     -1.832132264911e-16
      4.252320522715e-05
      8.637199599429e-04
     -8.695557753984e-04
     -4.259503180347e-05
      7.267542687442e-18
      4.259503180334e-05
      8.695557753982e-04
     -7.917956728617e-04
     -6.784933473125e-05
     -1.599198204416e-16
      6.784933473125e-05
      7.917956728616e-04
     -6.190056307302e-04
     -1.232829229648e-04
     -1.425387043640e-16
      1.232829229647e-04
      6.190056307300e-04
      2.081924816151e-03
      6.153645405534e-04
      2.156122367236e-17
     -6.153645405534e-04
     -2.081924816151e-03
      1.854868128843e-03
      5.916850137077e-04
     -2.229390717173e-17
     -5.916850137078e-04
     -1.854868128843e-03
      2.060225232186e-03
      3.901096554878e-04
     -3.085181985102e-15
     -3.901096554820e-04
     -2.060225232191e-03
      1.987672631185e-03
      4.331903512026e-04
     -3.723827886673e-15
     -4.331903511962e-04
     -1.987672631192e-03
SCALARS eps22 double
LOOKUP_TABLE default
     -2.123292602752e-02
     -2.161821499434e-02
     -2.144057509914e-02
     -2.161821499434e-02
     -2.123292602752e-02
     -2.139708723871e-02
     -2.141977782514e-02
     -2.150912701515e-02
     -2.141977782514e-02
     -2.139708723871e-02
     -2.156024596325e-02
     -2.122453968987e-02
     -2.157328583662e-02
     -2.122453968987e-02
     -2.156024596325e-02
     -2.172695658929e-02
     -2.102300506780e-02
     -2.164293382866e-02
     -2.102300506780e-02
     -2.172695658929e-02
     -2.190188980579e-02
     -2.080540580423e-02
     -2.172826592281e-02
     -2.080540580423e-02
     -2.190188980579e-02
     -2.213673867791e-02
     -2.053660462093e-02
     -2.186307828694e-02
     -2.053660462092e-02
     -2.213673867790e-02
     -2.170849399461e-02
     -2.059853617742e-02
     -2.169521705757e-02
     -2.059853617742e-02
     -2.170849399461e-02
     -2.025587759200e-02
     -2.119706694462e-02
     -2.103344719986e-02
     -2.119706694462e-02
     -2.025587759200e-02
     -1.946516985523e-02
     -2.120870568180e-02
     -2.090313695601e-02
     -2.120870568179e-02
     -1.946516985524e-02
     -1.860812614595e-02
     -2.129728433580e-02
     -2.070455586658e-02
     -2.129728433580e-02
     -1.860812614597e-02
SCALARS sig11 double
LOOKUP_TABLE default
      1.140521047284e+04
      1.167266711170e+04
      1.153655252324e+04
      1.167266711170e+04
      1.140521047284e+04
      1.146238421871e+04
      1.162893823462e+04
      1.150966278565e+04
      1.162893823462e+04
      1.146238421871e+04
      1.151825187247e+04
      1.158743277233e+04
      1.148093840270e+04
      1.158743277233e+04
      1.151825187247e+04
      1.157386434116e+04
      1.154640544219e+04
      1.145176812560e+04
      1.154640544219e+04
      1.157386434116e+04
      1.163027672768e+04
      1.150409787695e+04
      1.142355848305e+04
      1.150409787695e+04
      1.163027672768e+04
      1.168291472718e+04
      1.146166843887e+04
      1.139503522997e+04
      1.146166843887e+04
      1.168291472718e+04
      1.156505130879e+04
      1.142608391171e+04
      1.137212845289e+04
      1.142608391171e+04
      1.156505130879e+04
      1.081473938015e+04
      1.148699715358e+04
      1.129705320560e+04
      1.148699715358e+04
      1.081473938015e+04
      1.055535486090e+04
      1.149141712622e+04
      1.124765696220e+04
      1.149141712622e+04
      1.055535486090e+04
      9.877018208887e+03
      1.155904628389e+04
      1.115607545553e+04
      1.155904628389e+04
      9.877018208887e+03
SCALARS sig12 double
LOOKUP_TABLE default
     -9.800753989583e+01
     -1.834027973056e+01
     -3.149702720862e-12
      1.834027973059e+01
      9.800753989582e+01
     -1.254667395941e+02
     -1.066239574826e+01
     -5.073719222537e-12
      1.066239574826e+01
      1.254667395940e+02
     -1.395239935292e+02
     -6.869133152105e+00
     -2.959632539046e-11
      6.869133152078e+00
      1.395239935292e+02
     -1.404667021797e+02
     -6.880735906714e+00
      1.174615960053e-12
      6.880735906694e+00
      1.404667021797e+02
     -1.279054548469e+02
     -1.096027714890e+01
     -2.583266933698e-11
      1.096027714889e+01
      1.279054548469e+02
     -9.999321727181e+01
     -1.991493370970e+01
     -2.302824597677e-11
      1.991493370968e+01
      9.999321727177e+01
      3.363109318398e+02
      9.940504116632e+01
      3.480549182200e-12
     -9.940504116631e+01
     -3.363109318398e+02
      2.996325438900e+02
      9.557988682971e+01
     -3.597122599786e-12
     -9.557988682972e+01
     -2.996325438900e+02
      3.328056144300e+02
      6.301771357880e+01
     -4.983746748621e-10
     -6.301771357786e+01
     -3.328056144308e+02
      3.210855788838e+02
      6.997690288657e+01
     -6.015454800945e-10
     -6.997690288554e+01
     -3.210855788848e+02
SCALARS sig21 double
LOOKUP_TABLE default
     -9.800753989583e+01
     -1.834027973056e+01
     -3.149702720862e-12
      1.834027973059e+01
      9.800753989582e+01
     -1.254667395941e+02
     -1.066239574826e+01
     -5.073719222537e-12
      1.066239574826e+01
      1.254667395940e+02
     -1.395239935292e+02
     -6.869133152105e+00
     -2.959632539046e-11
      6.869133152078e+00
      1.395239935292e+02
     -1.404667021797e+02
     -6.880735906714e+00
      1.174615960053e-12
      6.880735906694e+00
      1.404667021797e+02
     -1.279054548469e+02
     -1.096027714890e+01
     -2.583266933698e-11
      1.096027714889e+01
      1.279054548469e+02
     -9.999321727181e+01
     -1.991493370970e+01
     -2.302824597677e-11
      1.991493370968e+01
      9.999321727177e+01
      3.363109318398e+02
      9.940504116632e+01
      3.480549182200e-12
     -9.940504116631e+01
     -3.363109318398e+02
      2.996325438900e+02
      9.557988682971e+01
     -3.597122599786e-12
     -9.557988682972e+01
     -2.996325438900e+02
      3.328056144300e+02
      6.301771357880e+01
     -4.983746748621e-10
     -6.301771357786e+01
     -3.328056144308e+02
      3.210855788838e+02
      6.997690288657e+01
     -6.015454800945e-10
     -6.997690288554e+01
     -3.210855788848e+02
SCALARS sig22 double
LOOKUP_TABLE default
     -1.195866084936e+01
      1.375277445184e+01
     -3.588227204976e+00
      1.375277445184e+01
     -1.195866084935e+01
     -2.533898333184e+01
      4.080502002219e+01
     -3.093207338071e+01
      4.080502002220e+01
     -2.533898333183e+01
     -3.904771650452e+01
      6.807191905225e+01
     -5.804840509548e+01
      6.807191905227e+01
     -3.904771650452e+01
     -5.368548428610e+01
      9.699676727120e+01
     -8.662256597020e+01
      9.699676727121e+01
     -5.368548428610e+01
     -6.987795101190e+01
      1.290801682651e+02
     -1.184044345064e+02
      1.290801682651e+02
     -6.987795101190e+01
     -1.015147019346e+02
      1.729271656750e+02
     -1.617392313953e+02
      1.729271656750e+02
     -1.015147019346e+02
     -5.320189938711e+01
      1.433847563844e+02
     -1.328192147951e+02
      1.433847563844e+02
     -5.320189938710e+01
     -3.954498468317e+01
      3.136794673052e+01
     -1.227819976714e+01
      3.136794673052e+01
     -3.954498468317e+01
      3.176123752942e+01
      3.057635829427e+01
     -3.376423630376e+00
      3.057635829445e+01
      3.176123752677e+01
     -6.117515294856e+01
      3.911905516358e+01
      3.200764477274e+00
      3.911905516379e+01
     -6.117515295281e+01
