# vtk DataFile Version 3.0
plate_with_hole_C0_coarse_01.vtk
ASCII
DATASET UNSTRUCTURED_GRID
FIELD FieldData 2
TIME 1 1 double
0.000000e+00
CYCLE 1 1 int
1
POINTS 420 double
     -1.000000000000e+00       0.000000000000e+00       0.000000000000e+00
     -9.938260386145e-01       1.109495604852e-01       0.000000000000e+00
     -9.743774847164e-01       2.249189126723e-01       0.000000000000e+00
     -9.405651881600e-01       3.396132017775e-01       0.000000000000e+00
     -8.918273451558e-01       4.523759348511e-01       0.000000000000e+00
     -8.282595980456e-01       5.603445709966e-01       0.000000000000e+00
     -7.506872886957e-01       6.606576985025e-01       0.000000000000e+00
     -7.071067811865e-01       7.071067811865e-01       0.000000000000e+00
     -6.606576985025e-01       7.506872886957e-01       0.000000000000e+00
     -5.603445709966e-01       8.282595980456e-01       0.000000000000e+00
     -4.523759348511e-01       8.918273451558e-01       0.000000000000e+00
     -3.396132017775e-01       9.405651881600e-01       0.000000000000e+00
     -2.249189126723e-01       9.743774847164e-01       0.000000000000e+00
     -1.109495604852e-01       9.938260386145e-01       0.000000000000e+00
      0.000000000000e+00       1.000000000000e+00       0.000000000000e+00
     -1.230769230769e+00       0.000000000000e+00       0.000000000000e+00
     -1.230972274642e+00       1.353150158346e-01       0.000000000000e+00
     -1.212654985747e+00       2.744117522753e-01       0.000000000000e+00
     -1.174373023406e+00       4.149533435887e-01       0.000000000000e+00
     -1.115301965098e+00       5.542675987351e-01       0.000000000000e+00
     -1.035375574487e+00       6.894810683914e-01       0.000000000000e+00
     -9.353669588135e-01       8.176924546372e-01       0.000000000000e+00
     -8.783057633002e-01       8.783057633002e-01       0.000000000000e+00
     -8.176924546372e-01       9.353669588135e-01       0.000000000000e+00
     -6.894810683914e-01       1.035375574487e+00       0.000000000000e+00
     -5.542675987351e-01       1.115301965098e+00       0.000000000000e+00
     -4.149533435887e-01       1.174373023406e+00       0.000000000000e+00
     -2.744117522753e-01       1.212654985747e+00       0.000000000000e+00
     -1.353150158346e-01       1.230972274642e+00       0.000000000000e+00
      0.000000000000e+00       1.230769230769e+00       0.000000000000e+00
     -1.461538461538e+00       0.000000000000e+00       0.000000000000e+00
     -1.465781160041e+00       1.689052362482e-01       0.000000000000e+00
     -1.447454360725e+00       3.398548270215e-01       0.000000000000e+00
     -1.405037410494e+00       5.102629759727e-01       0.000000000000e+00
     -1.337648271163e+00       6.773079093747e-01       0.000000000000e+00
     -1.245162504520e+00       8.380613613717e-01       0.000000000000e+00
     -1.128283134971e+00       9.896419772190e-01       0.000000000000e+00
     -1.061144912941e+00       1.061144912941e+00       0.000000000000e+00
     -9.896419772190e-01       1.128283134971e+00       0.000000000000e+00
     -8.380613613717e-01       1.245162504520e+00       0.000000000000e+00
     -6.773079093747e-01       1.337648271163e+00       0.000000000000e+00
     -5.102629759727e-01       1.405037410494e+00       0.000000000000e+00
     -3.398548270215e-01       1.447454360725e+00       0.000000000000e+00
     -1.689052362482e-01       1.465781160041e+00       0.000000000000e+00
      0.000000000000e+00       1.461538461538e+00       0.000000000000e+00
     -1.692307692308e+00       0.000000000000e+00       0.000000000000e+00
     -1.698648886626e+00       2.116104661677e-01       0.000000000000e+00
     -1.679554731257e+00       4.209136205287e-01       0.000000000000e+00
     -1.633607956406e+00       6.250136271663e-01       0.000000000000e+00
     -1.559991889446e+00       8.209220562813e-01       0.000000000000e+00
     -1.458580625462e+00       1.005683150062e+00       0.000000000000e+00
     -1.329991188073e+00       1.176508696558e+00       0.000000000000e+00
     -1.255903036725e+00       1.255903036725e+00       0.000000000000e+00
     -1.176508696558e+00       1.329991188073e+00       0.000000000000e+00
     -1.005683150062e+00       1.458580625462e+00       0.000000000000e+00
     -8.209220562813e-01       1.559991889446e+00       0.000000000000e+00
     -6.250136271663e-01       1.633607956406e+00       0.000000000000e+00
     -4.209136205287e-01       1.679554731257e+00       0.000000000000e+00
     -2.116104661677e-01       1.698648886626e+00       0.000000000000e+00
      0.000000000000e+00       1.692307692308e+00       0.000000000000e+00
     -1.923076923077e+00       0.000000000000e+00       0.000000000000e+00
     -1.929957040999e+00       2.633508437863e-01       0.000000000000e+00
     -1.909687939932e+00       5.173551641804e-01       0.000000000000e+00
     -1.861058183552e+00       7.588580154422e-01       0.000000000000e+00
     -1.783380629901e+00       9.847688401963e-01       0.000000000000e+00
     -1.676554208392e+00       1.192176049881e+00       0.000000000000e+00
     -1.541098930255e+00       1.378460610998e+00       0.000000000000e+00
     -1.462969372063e+00       1.462969372063e+00       0.000000000000e+00
     -1.378460610998e+00       1.541098930255e+00       0.000000000000e+00
     -1.192176049881e+00       1.676554208392e+00       0.000000000000e+00
     -9.847688401963e-01       1.783380629901e+00       0.000000000000e+00
     -7.588580154422e-01       1.861058183552e+00       0.000000000000e+00
     -5.173551641804e-01       1.909687939932e+00       0.000000000000e+00
     -2.633508437863e-01       1.929957040999e+00       0.000000000000e+00
      0.000000000000e+00       1.923076923077e+00       0.000000000000e+00
     -2.153846153846e+00       0.000000000000e+00       0.000000000000e+00
     -2.160074896406e+00       3.240752167487e-01       0.000000000000e+00
     -2.138547657761e+00       6.290409179927e-01       0.000000000000e+00
     -2.088303118123e+00       9.116134143324e-01       0.000000000000e+00
     -2.008807059168e+00       1.168716374946e+00       0.000000000000e+00
     -1.899990833888e+00       1.397577556222e+00       0.000000000000e+00
     -1.762272677494e+00       1.595818500872e+00       0.000000000000e+00
     -1.682840091320e+00       1.682840091320e+00       0.000000000000e+00
     -1.595818500872e+00       1.762272677494e+00       0.000000000000e+00
     -1.397577556222e+00       1.899990833888e+00       0.000000000000e+00
     -1.168716374946e+00       2.008807059168e+00       0.000000000000e+00
     -9.116134143324e-01       2.088303118123e+00       0.000000000000e+00
     -6.290409179927e-01       2.138547657761e+00       0.000000000000e+00
     -3.240752167487e-01       2.160074896406e+00       0.000000000000e+00
      0.000000000000e+00       2.153846153846e+00       0.000000000000e+00
     -2.384615384615e+00       0.000000000000e+00       0.000000000000e+00
     -2.389361544060e+00       3.937602078238e-01       0.000000000000e+00
     -2.366797458939e+00       7.559213528164e-01       0.000000000000e+00
     -2.316214426067e+00       1.083249416235e+00       0.000000000000e+00
     -2.237227728673e+00       1.372824833501e+00       0.000000000000e+00
     -2.129798262632e+00       1.622116805106e+00       0.000000000000e+00
     -1.994244236426e+00       1.829048644676e+00       0.000000000000e+00
     -1.916118088806e+00       1.916118088806e+00       0.000000000000e+00
     -1.829048644676e+00       1.994244236426e+00       0.000000000000e+00
     -1.622116805106e+00       2.129798262632e+00       0.000000000000e+00
     -1.372824833501e+00       2.237227728673e+00       0.000000000000e+00
     -1.083249416235e+00       2.316214426067e+00       0.000000000000e+00
     -7.559213528164e-01       2.366797458939e+00       0.000000000000e+00
     -3.937602078238e-01       2.389361544060e+00       0.000000000000e+00
      0.000000000000e+00       2.384615384615e+00       0.000000000000e+00
     -2.615384615385e+00       0.000000000000e+00       0.000000000000e+00
     -2.618167891446e+00       4.724095125473e-01       0.000000000000e+00
     -2.595078081468e+00       8.980320257178e-01       0.000000000000e+00
     -2.545633701934e+00       1.273879402926e+00       0.000000000000e+00
     -2.469580008013e+00       1.597334977925e+00       0.000000000000e+00
     -2.366899770307e+00       1.866204676678e+00       0.000000000000e+00
     -2.237818966961e+00       2.078760114973e+00       0.000000000000e+00
     -2.163515652074e+00       2.163515652074e+00       0.000000000000e+00
     -2.078760114973e+00       2.237818966961e+00       0.000000000000e+00
     -1.866204676678e+00       2.366899770307e+00       0.000000000000e+00
     -1.597334977925e+00       2.469580008013e+00       0.000000000000e+00
     -1.273879402926e+00       2.545633701934e+00       0.000000000000e+00
     -8.980320257178e-01       2.595078081468e+00       0.000000000000e+00
     -4.724095125473e-01       2.618167891446e+00       0.000000000000e+00
      0.000000000000e+00       2.615384615385e+00       0.000000000000e+00
     -2.846153846154e+00       0.000000000000e+00       0.000000000000e+00
     -2.846838552324e+00       5.600534146954e-01       0.000000000000e+00
     -2.824014057041e+00       1.055490992222e+00       0.000000000000e+00
     -2.777384396749e+00       1.483755223443e+00       0.000000000000e+00
     -2.706797269815e+00       1.842661593062e+00       0.000000000000e+00
     -2.612248639298e+00       2.130429261228e+00       0.000000000000e+00
     -2.493885106133e+00       2.345706074216e+00       0.000000000000e+00
     -2.425859812883e+00       2.425859812883e+00       0.000000000000e+00
     -2.345706074216e+00       2.493885106133e+00       0.000000000000e+00
     -2.130429261228e+00       2.612248639298e+00       0.000000000000e+00
     -1.842661593062e+00       2.706797269815e+00       0.000000000000e+00
[...]
POINT_DATA 420
VECTORS DSPL double
      0.000000000000e+00       0.000000000000e+00       0.000000000000e+00
      0.000000000000e+00       0.000000000000e+00       0.000000000000e+00
      0.000000000000e+00       0.000000000000e+00       0.000000000000e+00
      0.000000000000e+00       0.000000000000e+00       0.000000000000e+00
      0.000000000000e+00       0.000000000000e+00       0.000000000000e+00
      0.000000000000e+00       0.000000000000e+00       0.000000000000e+00
      0.000000000000e+00       0.000000000000e+00       0.000000000000e+00
      0.000000000000e+00       0.000000000000e+00       0.000000000000e+00
      0.000000000000e+00       0.000000000000e+00       0.000000000000e+00
      0.000000000000e+00       0.000000000000e+00       0.000000000000e+00
      0.000000000000e+00       0.000000000000e+00       0.000000000000e+00
      0.000000000000e+00       0.000000000000e+00       0.000000000000e+00
      0.000000000000e+00       0.000000000000e+00       0.000000000000e+00
      0.000000000000e+00       0.000000000000e+00       0.000000000000e+00
      0.000000000000e+00       0.000000000000e+00       0.000000000000e+00
      0.000000000000e+00       0.000000000000e+00       0.000000000000e+00
      0.000000000000e+00       0.000000000000e+00       0.000000000000e+00
      0.000000000000e+00       0.000000000000e+00       0.000000000000e+00
      0.000000000000e+00       0.000000000000e+00       0.000000000000e+00
      0.000000000000e+00       0.000000000000e+00       0.000000000000e+00
      0.000000000000e+00       0.000000000000e+00       0.000000000000e+00
      0.000000000000e+00       0.000000000000e+00       0.000000000000e+00
      0.000000000000e+00       0.000000000000e+00       0.000000000000e+00
      0.000000000000e+00       0.000000000000e+00       0.000000000000e+00
      0.000000000000e+00       0.000000000000e+00       0.000000000000e+00
      0.000000000000e+00       0.000000000000e+00       0.000000000000e+00
      0.000000000000e+00       0.000000000000e+00       0.000000000000e+00
      0.000000000000e+00       0.000000000000e+00       0.000000000000e+00
      0.000000000000e+00       0.000000000000e+00       0.000000000000e+00
      0.000000000000e+00       0.000000000000e+00       0.000000000000e+00
      0.000000000000e+00       0.000000000000e+00       0.000000000000e+00
      0.000000000000e+00       0.000000000000e+00       0.000000000000e+00
      0.000000000000e+00       0.000000000000e+00       0.000000000000e+00
      0.000000000000e+00       0.000000000000e+00       0.000000000000e+00
      0.000000000000e+00       0.000000000000e+00       0.000000000000e+00
      0.000000000000e+00       0.000000000000e+00       0.000000000000e+00
      0.000000000000e+00       0.000000000000e+00       0.000000000000e+00
      0.000000000000e+00       0.000000000000e+00       0.000000000000e+00
      0.000000000000e+00       0.000000000000e+00       0.000000000000e+00
      0.000000000000e+00       0.000000000000e+00       0.000000000000e+00
      0.000000000000e+00       0.000000000000e+00       0.000000000000e+00
      0.000000000000e+00       0.000000000000e+00       0.000000000000e+00
      0.000000000000e+00       0.000000000000e+00       0.000000000000e+00
      0.000000000000e+00       0.000000000000e+00       0.000000000000e+00
      0.000000000000e+00       0.000000000000e+00       0.000000000000e+00
      0.000000000000e+00       0.000000000000e+00       0.000000000000e+00
      0.000000000000e+00       0.000000000000e+00       0.000000000000e+00
      0.000000000000e+00       0.000000000000e+00       0.000000000000e+00
      0.000000000000e+00       0.000000000000e+00       0.000000000000e+00
      0.000000000000e+00       0.000000000000e+00       0.000000000000e+00
      0.000000000000e+00       0.000000000000e+00       0.000000000000e+00
      0.000000000000e+00       0.000000000000e+00       0.000000000000e+00
      0.000000000000e+00       0.000000000000e+00       0.000000000000e+00
      0.000000000000e+00       0.000000000000e+00       0.000000000000e+00
      0.000000000000e+00       0.000000000000e+00       0.000000000000e+00
      0.000000000000e+00       0.000000000000e+00       0.000000000000e+00
      0.000000000000e+00       0.000000000000e+00       0.000000000000e+00
      0.000000000000e+00       0.000000000000e+00       0.000000000000e+00
      0.000000000000e+00       0.000000000000e+00       0.000000000000e+00
      0.000000000000e+00       0.000000000000e+00       0.000000000000e+00
      0.000000000000e+00       0.000000000000e+00       0.000000000000e+00
      0.000000000000e+00       0.000000000000e+00       0.000000000000e+00
      0.000000000000e+00       0.000000000000e+00       0.000000000000e+00
      0.000000000000e+00       0.000000000000e+00       0.000000000000e+00
      0.000000000000e+00       0.000000000000e+00       0.000000000000e+00
      0.000000000000e+00       0.000000000000e+00       0.000000000000e+00
      0.000000000000e+00       0.000000000000e+00       0.000000000000e+00
      0.000000000000e+00       0.000000000000e+00       0.000000000000e+00
      0.000000000000e+00       0.000000000000e+00       0.000000000000e+00
      0.000000000000e+00       0.000000000000e+00       0.000000000000e+00
      0.000000000000e+00       0.000000000000e+00       0.000000000000e+00
      0.000000000000e+00       0.000000000000e+00       0.000000000000e+00
      0.000000000000e+00       0.000000000000e+00       0.000000000000e+00
      0.000000000000e+00       0.000000000000e+00       0.000000000000e+00
      0.000000000000e+00       0.000000000000e+00       0.000000000000e+00
      0.000000000000e+00       0.000000000000e+00       0.000000000000e+00
      0.000000000000e+00       0.000000000000e+00       0.000000000000e+00
      0.000000000000e+00       0.000000000000e+00       0.000000000000e+00
      0.000000000000e+00       0.000000000000e+00       0.000000000000e+00
      0.000000000000e+00       0.000000000000e+00       0.000000000000e+00
      0.000000000000e+00       0.000000000000e+00       0.000000000000e+00
      0.000000000000e+00       0.000000000000e+00       0.000000000000e+00
      0.000000000000e+00       0.000000000000e+00       0.000000000000e+00
      0.000000000000e+00       0.000000000000e+00       0.000000000000e+00
      0.000000000000e+00       0.000000000000e+00       0.000000000000e+00
      0.000000000000e+00       0.000000000000e+00       0.000000000000e+00
      0.000000000000e+00       0.000000000000e+00       0.000000000000e+00
      0.000000000000e+00       0.000000000000e+00       0.000000000000e+00
      0.000000000000e+00       0.000000000000e+00       0.000000000000e+00
      0.000000000000e+00       0.000000000000e+00       0.000000000000e+00
      0.000000000000e+00       0.000000000000e+00       0.000000000000e+00
      0.000000000000e+00       0.000000000000e+00       0.000000000000e+00
      0.000000000000e+00       0.000000000000e+00       0.000000000000e+00
      0.000000000000e+00       0.000000000000e+00       0.000000000000e+00
      0.000000000000e+00       0.000000000000e+00       0.000000000000e+00
      0.000000000000e+00       0.000000000000e+00       0.000000000000e+00
      0.000000000000e+00       0.000000000000e+00       0.000000000000e+00
      0.000000000000e+00       0.000000000000e+00       0.000000000000e+00
      0.000000000000e+00       0.000000000000e+00       0.000000000000e+00
      0.000000000000e+00       0.000000000000e+00       0.000000000000e+00
      0.000000000000e+00       0.000000000000e+00       0.000000000000e+00
      0.000000000000e+00       0.000000000000e+00       0.000000000000e+00
      0.000000000000e+00       0.000000000000e+00       0.000000000000e+00
      0.000000000000e+00       0.000000000000e+00       0.000000000000e+00
      0.000000000000e+00       0.000000000000e+00       0.000000000000e+00
      0.000000000000e+00       0.000000000000e+00       0.000000000000e+00
      0.000000000000e+00       0.000000000000e+00       0.000000000000e+00
      0.000000000000e+00       0.000000000000e+00       0.000000000000e+00
      0.000000000000e+00       0.000000000000e+00       0.000000000000e+00
      0.000000000000e+00       0.000000000000e+00       0.000000000000e+00
      0.000000000000e+00       0.000000000000e+00       0.000000000000e+00
      0.000000000000e+00       0.000000000000e+00       0.000000000000e+00
      0.000000000000e+00       0.000000000000e+00       0.000000000000e+00
      0.000000000000e+00       0.000000000000e+00       0.000000000000e+00
      0.000000000000e+00       0.000000000000e+00       0.000000000000e+00
      0.000000000000e+00       0.000000000000e+00       0.000000000000e+00
      0.000000000000e+00       0.000000000000e+00       0.000000000000e+00
      0.000000000000e+00       0.000000000000e+00       0.000000000000e+00
      0.000000000000e+00       0.000000000000e+00       0.000000000000e+00
      0.000000000000e+00       0.000000000000e+00       0.000000000000e+00
      0.000000000000e+00       0.000000000000e+00       0.000000000000e+00
      0.000000000000e+00       0.000000000000e+00       0.000000000000e+00
      0.000000000000e+00       0.000000000000e+00       0.000000000000e+00
      0.000000000000e+00       0.000000000000e+00       0.000000000000e+00
      0.000000000000e+00       0.000000000000e+00       0.000000000000e+00
      0.000000000000e+00       0.000000000000e+00       0.000000000000e+00
      0.000000000000e+00       0.000000000000e+00       0.000000000000e+00
      0.000000000000e+00       0.000000000000e+00       0.000000000000e+00
      0.000000000000e+00       0.000000000000e+00       0.000000000000e+00
      0.000000000000e+00       0.000000000000e+00       0.000000000000e+00
      0.000000000000e+00       0.000000000000e+00       0.000000000000e+00
      0.000000000000e+00       0.000000000000e+00       0.000000000000e+00
      0.000000000000e+00       0.000000000000e+00       0.000000000000e+00
      0.000000000000e+00       0.000000000000e+00       0.000000000000e+00
      0.000000000000e+00       0.000000000000e+00       0.000000000000e+00
      0.000000000000e+00       0.000000000000e+00       0.000000000000e+00
      0.000000000000e+00       0.000000000000e+00       0.000000000000e+00
      0.000000000000e+00       0.000000000000e+00       0.000000000000e+00
      0.000000000000e+00       0.000000000000e+00       0.000000000000e+00
      0.000000000000e+00       0.000000000000e+00       0.000000000000e+00
      0.000000000000e+00       0.000000000000e+00       0.000000000000e+00
      0.000000000000e+00       0.000000000000e+00       0.000000000000e+00
      0.000000000000e+00       0.000000000000e+00       0.000000000000e+00
      0.000000000000e+00       0.000000000000e+00       0.000000000000e+00
      0.000000000000e+00       0.000000000000e+00       0.000000000000e+00
      0.000000000000e+00       0.000000000000e+00       0.000000000000e+00
      0.000000000000e+00       0.000000000000e+00       0.000000000000e+00
      0.000000000000e+00       0.000000000000e+00       0.000000000000e+00
      0.000000000000e+00       0.000000000000e+00       0.000000000000e+00
      0.000000000000e+00       0.000000000000e+00       0.000000000000e+00
      0.000000000000e+00       0.000000000000e+00       0.000000000000e+00
      0.000000000000e+00       0.000000000000e+00       0.000000000000e+00
      0.000000000000e+00       0.000000000000e+00       0.000000000000e+00
      0.000000000000e+00       0.000000000000e+00       0.000000000000e+00
      0.000000000000e+00       0.000000000000e+00       0.000000000000e+00
      0.000000000000e+00       0.000000000000e+00       0.000000000000e+00
      0.000000000000e+00       0.000000000000e+00       0.000000000000e+00
      0.000000000000e+00       0.000000000000e+00       0.000000000000e+00
      0.000000000000e+00       0.000000000000e+00       0.000000000000e+00
      0.000000000000e+00       0.000000000000e+00       0.000000000000e+00
      0.000000000000e+00       0.000000000000e+00       0.000000000000e+00
      0.000000000000e+00       0.000000000000e+00       0.000000000000e+00
      0.000000000000e+00       0.000000000000e+00       0.000000000000e+00
      0.000000000000e+00       0.000000000000e+00       0.000000000000e+00
      0.000000000000e+00       0.000000000000e+00       0.000000000000e+00
      0.000000000000e+00       0.000000000000e+00       0.000000000000e+00
      0.000000000000e+00       0.000000000000e+00       0.000000000000e+00
      0.000000000000e+00       0.000000000000e+00       0.000000000000e+00
      0.000000000000e+00       0.000000000000e+00       0.000000000000e+00
      0.000000000000e+00       0.000000000000e+00       0.000000000000e+00
      0.000000000000e+00       0.000000000000e+00       0.000000000000e+00
      0.000000000000e+00       0.000000000000e+00       0.000000000000e+00
      0.000000000000e+00       0.000000000000e+00       0.000000000000e+00
      0.000000000000e+00       0.000000000000e+00       0.000000000000e+00
      0.000000000000e+00       0.000000000000e+00       0.000000000000e+00
      0.000000000000e+00       0.000000000000e+00       0.000000000000e+00
      0.000000000000e+00       0.000000000000e+00       0.000000000000e+00
      0.000000000000e+00       0.000000000000e+00       0.000000000000e+00
      0.000000000000e+00       0.000000000000e+00       0.000000000000e+00
      0.000000000000e+00       0.000000000000e+00       0.000000000000e+00
      0.000000000000e+00       0.000000000000e+00       0.000000000000e+00
      0.000000000000e+00       0.000000000000e+00       0.000000000000e+00
      0.000000000000e+00       0.000000000000e+00       0.000000000000e+00
      0.000000000000e+00       0.000000000000e+00       0.000000000000e+00
      0.000000000000e+00       0.000000000000e+00       0.000000000000e+00
      0.000000000000e+00       0.000000000000e+00       0.000000000000e+00
      0.000000000000e+00       0.000000000000e+00       0.000000000000e+00
      0.000000000000e+00       0.000000000000e+00       0.000000000000e+00
      0.000000000000e+00       0.000000000000e+00       0.000000000000e+00
      0.000000000000e+00       0.000000000000e+00       0.000000000000e+00
      0.000000000000e+00       0.000000000000e+00       0.000000000000e+00
      0.000000000000e+00       0.000000000000e+00       0.000000000000e+00
      0.000000000000e+00       0.000000000000e+00       0.000000000000e+00
      0.000000000000e+00       0.000000000000e+00       0.000000000000e+00
      0.000000000000e+00       0.000000000000e+00       0.000000000000e+00
      0.000000000000e+00       0.000000000000e+00       0.000000000000e+00
      0.000000000000e+00       0.000000000000e+00       0.000000000000e+00
      0.000000000000e+00       0.000000000000e+00       0.000000000000e+00
      0.000000000000e+00       0.000000000000e+00       0.000000000000e+00
      0.000000000000e+00       0.000000000000e+00       0.000000000000e+00
      0.000000000000e+00       0.000000000000e+00       0.000000000000e+00
      0.000000000000e+00       0.000000000000e+00       0.000000000000e+00
      0.000000000000e+00       0.000000000000e+00       0.000000000000e+00
      0.000000000000e+00       0.000000000000e+00       0.000000000000e+00
      0.000000000000e+00       0.000000000000e+00       0.000000000000e+00
      0.000000000000e+00       0.000000000000e+00       0.000000000000e+00
      0.000000000000e+00       0.000000000000e+00       0.000000000000e+00
      0.000000000000e+00       0.000000000000e+00       0.000000000000e+00
      0.000000000000e+00       0.000000000000e+00       0.000000000000e+00
      0.000000000000e+00       0.000000000000e+00       0.000000000000e+00
      0.000000000000e+00       0.000000000000e+00       0.000000000000e+00
      0.000000000000e+00       0.000000000000e+00       0.000000000000e+00
      0.000000000000e+00       0.000000000000e+00       0.000000000000e+00
      0.000000000000e+00       0.000000000000e+00       0.000000000000e+00
      0.000000000000e+00       0.000000000000e+00       0.000000000000e+00
      0.000000000000e+00       0.000000000000e+00       0.000000000000e+00
      0.000000000000e+00       0.000000000000e+00       0.000000000000e+00
      0.000000000000e+00       0.000000000000e+00       0.000000000000e+00
      0.000000000000e+00       0.000000000000e+00       0.000000000000e+00
      0.000000000000e+00       0.000000000000e+00       0.000000000000e+00
      0.000000000000e+00       0.000000000000e+00       0.000000000000e+00
      0.000000000000e+00       0.000000000000e+00       0.000000000000e+00
      0.000000000000e+00       0.000000000000e+00       0.000000000000e+00
      0.000000000000e+00       0.000000000000e+00       0.000000000000e+00
      0.000000000000e+00       0.000000000000e+00       0.000000000000e+00
      0.000000000000e+00       0.000000000000e+00       0.000000000000e+00
      0.000000000000e+00       0.000000000000e+00       0.000000000000e+00
      0.000000000000e+00       0.000000000000e+00       0.000000000000e+00
      0.000000000000e+00       0.000000000000e+00       0.000000000000e+00
      0.000000000000e+00       0.000000000000e+00       0.000000000000e+00
      0.000000000000e+00       0.000000000000e+00       0.000000000000e+00
      0.000000000000e+00       0.000000000000e+00       0.000000000000e+00
      0.000000000000e+00       0.000000000000e+00       0.000000000000e+00
      0.000000000000e+00       0.000000000000e+00       0.000000000000e+00
      0.000000000000e+00       0.000000000000e+00       0.000000000000e+00
      0.000000000000e+00       0.000000000000e+00       0.000000000000e+00
      0.000000000000e+00       0.000000000000e+00       0.000000000000e+00
      0.000000000000e+00       0.000000000000e+00       0.000000000000e+00
      0.000000000000e+00       0.000000000000e+00       0.000000000000e+00
      0.000000000000e+00       0.000000000000e+00       0.000000000000e+00
      0.000000000000e+00       0.000000000000e+00       0.000000000000e+00
      0.000000000000e+00       0.000000000000e+00       0.000000000000e+00
      0.000000000000e+00       0.000000000000e+00       0.000000000000e+00
      0.000000000000e+00       0.000000000000e+00       0.000000000000e+00
      0.000000000000e+00       0.000000000000e+00       0.000000000000e+00
      0.000000000000e+00       0.000000000000e+00       0.000000000000e+00
      0.000000000000e+00       0.000000000000e+00       0.000000000000e+00
      0.000000000000e+00       0.000000000000e+00       0.000000000000e+00
      0.000000000000e+00       0.000000000000e+00       0.000000000000e+00
      0.000000000000e+00       0.000000000000e+00       0.000000000000e+00
      0.000000000000e+00       0.000000000000e+00       0.000000000000e+00
      0.000000000000e+00       0.000000000000e+00       0.000000000000e+00
      0.000000000000e+00       0.000000000000e+00       0.000000000000e+00
      0.000000000000e+00       0.000000000000e+00       0.000000000000e+00
      0.000000000000e+00       0.000000000000e+00       0.000000000000e+00
      0.000000000000e+00       0.000000000000e+00       0.000000000000e+00
      0.000000000000e+00       0.000000000000e+00       0.000000000000e+00
      0.000000000000e+00       0.000000000000e+00       0.000000000000e+00
      0.000000000000e+00       0.000000000000e+00       0.000000000000e+00
      0.000000000000e+00       0.000000000000e+00       0.000000000000e+00
      0.000000000000e+00       0.000000000000e+00       0.000000000000e+00
      0.000000000000e+00       0.000000000000e+00       0.000000000000e+00
      0.000000000000e+00       0.000000000000e+00       0.000000000000e+00
      0.000000000000e+00       0.000000000000e+00       0.000000000000e+00
      0.000000000000e+00       0.000000000000e+00       0.000000000000e+00
      0.000000000000e+00       0.000000000000e+00       0.000000000000e+00