# vtk DataFile Version 3.0
plate_with_hole_C0_02.vtk
ASCII
DATASET UNSTRUCTURED_GRID
FIELD FieldData 2
TIME 1 1 double
1.000000e+00
CYCLE 1 1 int
2
POINTS 1404 double
     -1.000000000000e+00       0.000000000000e+00       0.000000000000e+00
     -9.983631810689e-01       5.719229568730e-02       0.000000000000e+00
     -9.933116387851e-01       1.154642293271e-01       0.000000000000e+00
     -9.846504941859e-01       1.745376873325e-01       0.000000000000e+00
     -9.722122813221e-01       2.341010039415e-01       0.000000000000e+00
     -9.558632461070e-01       2.938119377116e-01       0.000000000000e+00
     -9.355093373955e-01       3.533019666601e-01       0.000000000000e+00
     -9.111015816617e-01       4.121818869061e-01       0.000000000000e+00
     -8.826405246344e-01       4.700486190524e-01       0.000000000000e+00
     -8.501794386940e-01       5.264930408106e-01       0.000000000000e+00
     -8.138260360511e-01       5.811085811149e-01       0.000000000000e+00
     -7.737424943223e-01       6.335002387370e-01       0.000000000000e+00
     -7.301436895785e-01       6.832936356858e-01       0.000000000000e+00
     -7.071067811865e-01       7.071067811865e-01       0.000000000000e+00
     -6.832936356858e-01       7.301436895785e-01       0.000000000000e+00
     -6.335002387370e-01       7.737424943223e-01       0.000000000000e+00
     -5.811085811149e-01       8.138260360511e-01       0.000000000000e+00
     -5.264930408106e-01       8.501794386940e-01       0.000000000000e+00
     -4.700486190524e-01       8.826405246344e-01       0.000000000000e+00
     -4.121818869061e-01       9.111015816617e-01       0.000000000000e+00
     -3.533019666601e-01       9.355093373955e-01       0.000000000000e+00
     -2.938119377116e-01       9.558632461070e-01       0.000000000000e+00
     -2.341010039415e-01       9.722122813221e-01       0.000000000000e+00
     -1.745376873325e-01       9.846504941859e-01       0.000000000000e+00
     -1.154642293271e-01       9.933116387851e-01       0.000000000000e+00
     -5.719229568730e-02       9.983631810689e-01       0.000000000000e+00
      0.000000000000e+00       1.000000000000e+00       0.000000000000e+00
     -1.120000000000e+00       0.000000000000e+00       0.000000000000e+00
     -1.120595381118e+00       6.309118759241e-02       0.000000000000e+00
     -1.117031542457e+00       1.274499931321e-01       0.000000000000e+00
     -1.109076621681e+00       1.927993364507e-01       0.000000000000e+00
     -1.096529692814e+00       2.588293898761e-01       0.000000000000e+00
     -1.079227490372e+00       3.252003406287e-01       0.000000000000e+00
     -1.057050785440e+00       3.915463168278e-01       0.000000000000e+00
     -1.029930111638e+00       4.574804593924e-01       0.000000000000e+00
     -9.978505342983e-01       5.226010569546e-01       0.000000000000e+00
     -9.608551727904e-01       5.864985923714e-01       0.000000000000e+00
     -9.190472252310e-01       6.487634831321e-01       0.000000000000e+00
     -8.725903064199e-01       7.089942401585e-01       0.000000000000e+00
     -8.217069905302e-01       7.668057263009e-01       0.000000000000e+00
     -7.946903419140e-01       7.946903419140e-01       0.000000000000e+00
     -7.668057263009e-01       8.217069905302e-01       0.000000000000e+00
     -7.089942401585e-01       8.725903064199e-01       0.000000000000e+00
     -6.487634831321e-01       9.190472252310e-01       0.000000000000e+00
     -5.864985923714e-01       9.608551727904e-01       0.000000000000e+00
     -5.226010569546e-01       9.978505342983e-01       0.000000000000e+00
     -4.574804593924e-01       1.029930111638e+00       0.000000000000e+00
     -3.915463168278e-01       1.057050785440e+00       0.000000000000e+00
     -3.252003406287e-01       1.079227490372e+00       0.000000000000e+00
     -2.588293898761e-01       1.096529692814e+00       0.000000000000e+00
     -1.927993364507e-01       1.109076621681e+00       0.000000000000e+00
     -1.274499931321e-01       1.117031542457e+00       0.000000000000e+00
     -6.309118759241e-02       1.120595381118e+00       0.000000000000e+00
      0.000000000000e+00       1.120000000000e+00       0.000000000000e+00
     -1.240000000000e+00       0.000000000000e+00       0.000000000000e+00
     -1.242437224181e+00       7.037241658035e-02       0.000000000000e+00
     -1.240045398146e+00       1.420341835673e-01       0.000000000000e+00
     -1.232569729145e+00       2.146965986817e-01       0.000000000000e+00
     -1.219789084738e+00       2.880401421491e-01       0.000000000000e+00
     -1.201522703910e+00       3.617173275937e-01       0.000000000000e+00
     -1.177636519131e+00       4.353565681385e-01       0.000000000000e+00
     -1.148048812117e+00       5.085670273398e-01       0.000000000000e+00
     -1.112734925714e+00       5.809443718673e-01       0.000000000000e+00
     -1.071730771811e+00       6.520772886853e-01       0.000000000000e+00
     -1.025134911552e+00       7.215545780909e-01       0.000000000000e+00
     -9.731090385935e-01       7.889725898172e-01       0.000000000000e+00
     -9.158767660410e-01       8.539427368440e-01       0.000000000000e+00
     -8.853943539493e-01       8.853943539493e-01       0.000000000000e+00
     -8.539427368440e-01       9.158767660410e-01       0.000000000000e+00
     -7.889725898172e-01       9.731090385935e-01       0.000000000000e+00
     -7.215545780909e-01       1.025134911552e+00       0.000000000000e+00
     -6.520772886853e-01       1.071730771811e+00       0.000000000000e+00
     -5.809443718673e-01       1.112734925714e+00       0.000000000000e+00
     -5.085670273398e-01       1.148048812117e+00       0.000000000000e+00
     -4.353565681385e-01       1.177636519131e+00       0.000000000000e+00
     -3.617173275937e-01       1.201522703910e+00       0.000000000000e+00
     -2.880401421491e-01       1.219789084738e+00       0.000000000000e+00
     -2.146965986817e-01       1.232569729145e+00       0.000000000000e+00
     -1.420341835673e-01       1.240045398146e+00       0.000000000000e+00
     -7.037241658035e-02       1.242437224181e+00       0.000000000000e+00
      0.000000000000e+00       1.240000000000e+00       0.000000000000e+00
     -1.360000000000e+00       0.000000000000e+00       0.000000000000e+00
     -1.363917503820e+00       7.903044356901e-02       0.000000000000e+00
     -1.362412983653e+00       1.591968988885e-01       0.000000000000e+00
     -1.355220518177e+00       2.401898427224e-01       0.000000000000e+00
     -1.342109677779e+00       3.216719896096e-01       0.000000000000e+00
     -1.322891908947e+00       4.032813984480e-01       0.000000000000e+00
     -1.297426500507e+00       4.846354446029e-01       0.000000000000e+00
     -1.265625889416e+00       5.653356113873e-01       0.000000000000e+00
     -1.227460067089e+00       6.449730127540e-01       0.000000000000e+00
     -1.182959864825e+00       7.231345172783e-01       0.000000000000e+00
     -1.132218929235e+00       7.994093050768e-01       0.000000000000e+00
     -1.075394244959e+00       8.733956573905e-01       0.000000000000e+00
     -1.012705120108e+00       9.447077560962e-01       0.000000000000e+00
     -9.792463666736e-01       9.792463666736e-01       0.000000000000e+00
     -9.447077560962e-01       1.012705120108e+00       0.000000000000e+00
     -8.733956573905e-01       1.075394244959e+00       0.000000000000e+00
     -7.994093050768e-01       1.132218929235e+00       0.000000000000e+00
     -7.231345172783e-01       1.182959864825e+00       0.000000000000e+00
     -6.449730127540e-01       1.227460067089e+00       0.000000000000e+00
     -5.653356113873e-01       1.265625889416e+00       0.000000000000e+00
     -4.846354446029e-01       1.297426500507e+00       0.000000000000e+00
     -4.032813984480e-01       1.322891908947e+00       0.000000000000e+00
     -3.216719896096e-01       1.342109677779e+00       0.000000000000e+00
     -2.401898427224e-01       1.355220518177e+00       0.000000000000e+00
     -1.591968988885e-01       1.362412983653e+00       0.000000000000e+00
     -7.903044356901e-02       1.363917503820e+00       0.000000000000e+00
      0.000000000000e+00       1.360000000000e+00       0.000000000000e+00
     -1.480000000000e+00       0.000000000000e+00       0.000000000000e+00
     -1.485064661171e+00       8.906037096269e-02       0.000000000000e+00
     -1.484192742471e+00       1.789206993230e-01       0.000000000000e+00
     -1.477116917122e+00       2.692446577967e-01       0.000000000000e+00
     -1.463606264219e+00       3.596722408419e-01       0.000000000000e+00
     -1.443472117446e+00       4.498231867015e-01       0.000000000000e+00
     -1.416573484003e+00       5.393011131242e-01       0.000000000000e+00
     -1.382821830496e+00       6.276983063261e-01       0.000000000000e+00
     -1.342185038168e+00       7.146010701928e-01       0.000000000000e+00
     -1.294690346575e+00       7.995955116395e-01       0.000000000000e+00
     -1.240426132538e+00       8.822736106335e-01       0.000000000000e+00
     -1.179542409337e+00       9.622394018368e-01       0.000000000000e+00
     -1.112249977827e+00       1.039115081024e+00       0.000000000000e+00
     -1.076282476349e+00       1.076282476349e+00       0.000000000000e+00
     -1.039115081024e+00       1.112249977827e+00       0.000000000000e+00
     -9.622394018368e-01       1.179542409337e+00       0.000000000000e+00
     -8.822736106335e-01       1.240426132538e+00       0.000000000000e+00
     -7.995955116395e-01       1.294690346575e+00       0.000000000000e+00
     -7.146010701928e-01       1.342185038168e+00       0.000000000000e+00
     -6.276983063261e-01       1.382821830496e+00       0.000000000000e+00
     -5.393011131242e-01       1.416573484003e+00       0.000000000000e+00
     -4.498231867015e-01       1.443472117446e+00       0.000000000000e+00
     -3.596722408419e-01       1.463606264219e+00       0.000000000000e+00
[...]
POINT_DATA 1404
VECTORS DSPL double
     -6.737110178496e-02       0.000000000000e+00       0.000000000000e+00
     -6.726445882652e-02      -1.272801483017e-03       0.000000000000e+00
     -6.693429828631e-02      -2.571035529531e-03       0.000000000000e+00
     -6.636781207449e-02      -3.889851335385e-03       0.000000000000e+00
     -6.555344238997e-02      -5.223740075461e-03       0.000000000000e+00
     -6.448158931978e-02      -6.566540054213e-03       0.000000000000e+00
     -6.314495184288e-02      -7.911391097289e-03       0.000000000000e+00
     -6.153893292918e-02      -9.250770569914e-03       0.000000000000e+00
     -5.966197601111e-02      -1.057654569109e-02       0.000000000000e+00
     -5.751585822419e-02      -1.188006292648e-02       0.000000000000e+00
     -5.510588445440e-02      -1.315228003472e-02       0.000000000000e+00
     -5.244103083707e-02      -1.438389603283e-02       0.000000000000e+00
     -4.953388797235e-02      -1.556562546076e-02       0.000000000000e+00
     -4.799438046858e-02      -1.613492068243e-02       0.000000000000e+00
     -4.640058875694e-02      -1.668831126173e-02       0.000000000000e+00
     -4.306052178848e-02      -1.774317819341e-02       0.000000000000e+00
     -3.953602917718e-02      -1.872226458397e-02       0.000000000000e+00
     -3.585171856898e-02      -1.961835246153e-02       0.000000000000e+00
     -3.203418890121e-02      -2.042536169706e-02       0.000000000000e+00
     -2.811121722643e-02      -2.113850771180e-02       0.000000000000e+00
     -2.411116316955e-02      -2.175440871603e-02       0.000000000000e+00
     -2.006231123893e-02      -2.227116706704e-02       0.000000000000e+00
     -1.599225832985e-02      -2.268837525727e-02       0.000000000000e+00
     -1.192737289669e-02      -2.300707775005e-02       0.000000000000e+00
     -7.892313958318e-03      -2.322963347652e-02       0.000000000000e+00
     -3.909739904095e-03      -2.335965071732e-02       0.000000000000e+00
      1.095023576990e-16      -2.340133950860e-02       0.000000000000e+00
     -6.815510346436e-02       0.000000000000e+00       0.000000000000e+00
     -6.802478032606e-02      -7.497133457059e-04       0.000000000000e+00
     -6.759905858268e-02      -1.513848547997e-03       0.000000000000e+00
     -6.686296811366e-02      -2.309460581606e-03       0.000000000000e+00
     -6.580579223340e-02      -3.154205893219e-03       0.000000000000e+00
     -6.442153762763e-02      -4.065159135754e-03       0.000000000000e+00
     -6.270931591688e-02      -5.057482534008e-03       0.000000000000e+00
     -6.067349624853e-02      -6.143049792380e-03       0.000000000000e+00
     -5.832362685234e-02      -7.329164814891e-03       0.000000000000e+00
     -5.567413554536e-02      -8.617520555881e-03       0.000000000000e+00
     -5.274391200466e-02      -1.000353878338e-02       0.000000000000e+00
     -4.955574673906e-02      -1.147624539257e-02       0.000000000000e+00
     -4.613614423852e-02      -1.301845915986e-02       0.000000000000e+00
     -4.434856697372e-02      -1.380903282788e-02       0.000000000000e+00
     -4.252320833246e-02      -1.460464300798e-02       0.000000000000e+00
     -3.880810475084e-02      -1.618697189930e-02       0.000000000000e+00
     -3.504356743996e-02      -1.773610377686e-02       0.000000000000e+00
     -3.127017478528e-02      -1.922428901239e-02       0.000000000000e+00
     -2.752169576232e-02      -2.062342668555e-02       0.000000000000e+00
     -2.382413120148e-02      -2.190620980784e-02       0.000000000000e+00
     -2.019520335422e-02      -2.304772258441e-02       0.000000000000e+00
     -1.664466440680e-02      -2.402685463346e-02       0.000000000000e+00
     -1.317523711491e-02      -2.482747127423e-02       0.000000000000e+00
     -9.784002560445e-03      -2.543918839845e-02       0.000000000000e+00
     -6.464030900741e-03      -2.585771762715e-02       0.000000000000e+00
     -3.206055662843e-03      -2.608476942650e-02       0.000000000000e+00
      1.302651254668e-16      -2.612776440790e-02       0.000000000000e+00
     -6.857163235368e-02       0.000000000000e+00       0.000000000000e+00
     -6.842147301595e-02      -4.807473159446e-04       0.000000000000e+00
     -6.793226998959e-02      -9.761555936861e-04       0.000000000000e+00
     -6.709168980628e-02      -1.511266817134e-03       0.000000000000e+00
     -6.589173561641e-02      -2.112198854112e-03       0.000000000000e+00
     -6.432939025072e-02      -2.804941475862e-03       0.000000000000e+00
     -6.240713555733e-02      -3.614021564690e-03       0.000000000000e+00
     -6.013339553256e-02      -4.560993248217e-03       0.000000000000e+00
     -5.752283803195e-02      -5.662808702705e-03       0.000000000000e+00
     -5.459646804849e-02      -6.930167779694e-03       0.000000000000e+00
     -5.138153735108e-02      -8.365947479539e-03       0.000000000000e+00
     -4.791100282273e-02      -9.964041271657e-03       0.000000000000e+00
     -4.422343114286e-02      -1.170816339520e-02       0.000000000000e+00
     -4.231111724114e-02      -1.262747983737e-02       0.000000000000e+00
     -4.037476488686e-02      -1.356616791171e-02       0.000000000000e+00
     -3.649944578102e-02      -1.546066961616e-02       0.000000000000e+00
     -3.266061519854e-02      -1.734358435718e-02       0.000000000000e+00
     -2.889853952406e-02      -1.917137572297e-02       0.000000000000e+00
     -2.524147103601e-02      -2.090213619533e-02       0.000000000000e+00
     -2.170632516393e-02      -2.249696064846e-02       0.000000000000e+00
     -1.829943379369e-02      -2.392177979713e-02       0.000000000000e+00
     -1.501807338755e-02      -2.514855434681e-02       0.000000000000e+00
     -1.185228635867e-02      -2.615606557688e-02       0.000000000000e+00
     -8.786833227635e-03      -2.693025322828e-02       0.000000000000e+00
     -5.803103501164e-03      -2.746418182049e-02       0.000000000000e+00
     -2.880886303318e-03      -2.775772476148e-02       0.000000000000e+00
      1.488624187610e-16      -2.781695658153e-02       0.000000000000e+00
     -6.893844893036e-02       0.000000000000e+00       0.000000000000e+00
     -6.877580652641e-02      -3.447725260541e-04       0.000000000000e+00
     -6.823852458871e-02      -7.090309661593e-04       0.000000000000e+00
     -6.732011596394e-02      -1.121868655239e-03       0.000000000000e+00
     -6.601853114839e-02      -1.612914055975e-03       0.000000000000e+00
     -6.433649779002e-02      -2.211329125842e-03       0.000000000000e+00
     -6.228191567341e-02      -2.944677981815e-03       0.000000000000e+00
     -5.986826827077e-02      -3.837629367814e-03       0.000000000000e+00
     -5.711501833561e-02      -4.910476765077e-03       0.000000000000e+00
     -5.404789009574e-02      -6.177502829419e-03       0.000000000000e+00
     -5.069902235855e-02      -7.645198180225e-03       0.000000000000e+00
     -4.710659515620e-02      -9.310664697729e-03       0.000000000000e+00
     -4.331489242446e-02      -1.115960185581e-02       0.000000000000e+00
     -4.135889282402e-02      -1.214549257054e-02       0.000000000000e+00
     -3.938760196551e-02      -1.315838630384e-02       0.000000000000e+00
     -3.547485197245e-02      -1.521553579522e-02       0.000000000000e+00
     -3.163906562489e-02      -1.727367514635e-02       0.000000000000e+00
     -2.791530327806e-02      -1.928195887265e-02       0.000000000000e+00
     -2.432538754780e-02      -2.119243876972e-02       0.000000000000e+00
     -2.087966175616e-02      -2.296117233192e-02       0.000000000000e+00
     -1.757836219369e-02      -2.454977971024e-02       0.000000000000e+00
     -1.441346642039e-02      -2.592625597743e-02       0.000000000000e+00
     -1.137052780784e-02      -2.706545555675e-02       0.000000000000e+00
     -8.430449827082e-03      -2.794924624283e-02       0.000000000000e+00
     -5.571121278550e-03      -2.856645460822e-02       0.000000000000e+00
     -2.768910004541e-03      -2.891263854425e-02       0.000000000000e+00
      1.578755634735e-16      -2.898981436970e-02       0.000000000000e+00
     -6.938495886412e-02       0.000000000000e+00       0.000000000000e+00
     -6.921491856900e-02      -2.865347541652e-04       0.000000000000e+00
     -6.863664955709e-02      -5.995162746260e-04       0.000000000000e+00
     -6.765235388183e-02      -9.708795489669e-04       0.000000000000e+00
     -6.626882537324e-02      -1.431847699806e-03       0.000000000000e+00
     -6.449729156964e-02      -2.012022241571e-03       0.000000000000e+00
     -6.235336196773e-02      -2.738497320903e-03       0.000000000000e+00
     -5.985710805352e-02      -3.634897023547e-03       0.000000000000e+00
     -5.703323860666e-02      -4.720288612128e-03       0.000000000000e+00
     -5.391128730565e-02      -6.007943366074e-03       0.000000000000e+00
     -5.052578065706e-02      -7.503884846001e-03       0.000000000000e+00
     -4.691599131846e-02      -9.205492004691e-03       0.000000000000e+00
     -4.312614747557e-02      -1.109946486380e-02       0.000000000000e+00
     -4.117799308587e-02      -1.211165654521e-02       0.000000000000e+00
     -3.921870922242e-02      -1.315342502735e-02       0.000000000000e+00
     -3.533878781597e-02      -1.527511631080e-02       0.000000000000e+00
     -3.154233873083e-02      -1.740643222359e-02       0.000000000000e+00
     -2.785863698957e-02      -1.949607471135e-02       0.000000000000e+00
     -2.430507899344e-02      -2.149544530190e-02       0.000000000000e+00
     -2.088912994455e-02      -2.335932166777e-02       0.000000000000e+00
     -1.760960790085e-02      -2.504706630481e-02       0.000000000000e+00
     -1.445820796734e-02      -2.652323309697e-02       0.000000000000e+00
     -1.142088085179e-02      -2.775802145558e-02       0.000000000000e+00
     -8.479116953074e-03      -2.872758312202e-02       0.000000000000e+00
     -5.611139794734e-03      -2.941427664744e-02       0.000000000000e+00
     -2.793048403063e-03      -2.980690202549e-02       0.000000000000e+00
      1.546517679501e-16      -2.990093799094e-02       0.000000000000e+00
     -6.996392681244e-02       0.000000000000e+00       0.000000000000e+00
     -6.978896399629e-02      -2.773658199852e-04       0.000000000000e+00
     -6.917234226249e-02      -5.889053491384e-04       0.000000000000e+00
     -6.812747392222e-02      -9.693597611979e-04       0.000000000000e+00
     -6.667254737686e-02      -1.450723060407e-03       0.000000000000e+00
     -6.482954365241e-02      -2.061481842346e-03       0.000000000000e+00
     -6.262349272791e-02      -2.826036622268e-03       0.000000000000e+00
     -6.008200393517e-02      -3.764215666711e-03       0.000000000000e+00
     -5.723505955253e-02      -4.890774884540e-03       0.000000000000e+00
     -5.411499445542e-02      -6.214812276993e-03       0.000000000000e+00
     -5.075661686722e-02      -7.738981191444e-03       0.000000000000e+00
     -4.719713647751e-02      -9.458683668182e-03       0.000000000000e+00
     -4.347656947882e-02      -1.136053424971e-02       0.000000000000e+00
     -4.156847665549e-02      -1.237334040354e-02       0.000000000000e+00
     -3.964982400622e-02      -1.341489716793e-02       0.000000000000e+00
     -3.584271335114e-02      -1.553856008614e-02       0.000000000000e+00
     -3.210198294830e-02      -1.767872443037e-02       0.000000000000e+00
     -2.845185081032e-02      -1.978821724405e-02       0.000000000000e+00
     -2.490737020213e-02      -2.182127674554e-02       0.000000000000e+00
     -2.147596982906e-02      -2.373374685872e-02       0.000000000000e+00
     -1.815823311416e-02      -2.548389936549e-02       0.000000000000e+00
     -1.494874937184e-02      -2.703292895640e-02       0.000000000000e+00
     -1.183679088032e-02      -2.834552471932e-02       0.000000000000e+00
     -8.806939993695e-03      -2.939052335461e-02       0.000000000000e+00
     -5.839732188784e-03      -3.014171818347e-02       0.000000000000e+00
     -2.912427547054e-03      -3.057880544654e-02       0.000000000000e+00
      1.520967375580e-16      -3.068846253610e-02       0.000000000000e+00
     -7.069001052841e-02       0.000000000000e+00       0.000000000000e+00
     -7.051026888779e-02      -3.018737535002e-04       0.000000000000e+00
     -6.985559435436e-02      -6.456991226862e-04       0.000000000000e+00
     -6.875284635561e-02      -1.069353260361e-03       0.000000000000e+00
     -6.723374501571e-02      -1.605124145746e-03       0.000000000000e+00
     -6.533266095045e-02      -2.279234031300e-03       0.000000000000e+00
     -6.308495458615e-02      -3.111768848826e-03       0.000000000000e+00
     -6.052587889178e-02      -4.116880063617e-03       0.000000000000e+00
     -5.769002174984e-02      -5.303071206290e-03       0.000000000000e+00
     -5.461118179188e-02      -6.673434126446e-03       0.000000000000e+00
     -5.132257827541e-02      -8.225673770728e-03       0.000000000000e+00
     -4.785710974326e-02      -9.952021390447e-03       0.000000000000e+00
     -4.424806179352e-02      -1.183837563649e-02       0.000000000000e+00
     -4.239983247134e-02      -1.283562462266e-02       0.000000000000e+00
     -4.053901691212e-02      -1.385871890442e-02       0.000000000000e+00
     -3.682721783374e-02      -1.594547371760e-02       0.000000000000e+00
     -3.314905539089e-02      -1.805473385292e-02       0.000000000000e+00
     -2.952456177366e-02      -2.014605675193e-02       0.000000000000e+00
     -2.596781098209e-02      -2.217863085283e-02       0.000000000000e+00
     -2.248781988130e-02      -2.411095815102e-02       0.000000000000e+00
     -1.908869679588e-02      -2.590120300266e-02       0.000000000000e+00
     -1.576971118104e-02      -2.750750788562e-02       0.000000000000e+00
     -1.252516801252e-02      -2.888863248551e-02       0.000000000000e+00
     -9.344256713808e-03      -3.000496361556e-02       0.000000000000e+00
     -6.211015458532e-03      -3.081997890819e-02       0.000000000000e+00
     -3.104597798973e-03      -3.130213949268e-02       0.000000000000e+00
      1.465750029357e-16      -3.142720030979e-02       0.000000000000e+00
     -7.156080109206e-02       0.000000000000e+00       0.000000000000e+00
     -7.137491173352e-02      -3.511228821514e-04       0.000000000000e+00
     -7.068143792816e-02      -7.516832094346e-04       0.000000000000e+00
     -6.952274401910e-02      -1.243105379147e-03       0.000000000000e+00
     -6.794584592441e-02      -1.857528016888e-03       0.000000000000e+00
     -6.599854860121e-02      -2.617875022735e-03       0.000000000000e+00
     -6.372671212914e-02      -3.538600912781e-03       0.000000000000e+00
     -6.117258867568e-02      -4.626867532767e-03       0.000000000000e+00
     -5.837412587615e-02      -5.883813285365e-03       0.000000000000e+00
     -5.536501419064e-02      -7.305701595105e-03       0.000000000000e+00
     -5.217525515753e-02      -8.884752692049e-03       0.000000000000e+00
     -4.883195985483e-02      -1.060970973434e-02       0.000000000000e+00
     -4.536047664471e-02      -1.246558780755e-02       0.000000000000e+00
     -4.358406145454e-02      -1.343716103596e-02       0.000000000000e+00
     -4.179124541180e-02      -1.443053300801e-02       0.000000000000e+00
     -3.818711306453e-02      -1.645681496512e-02       0.000000000000e+00
     -3.457379277998e-02      -1.851116577695e-02       0.000000000000e+00
     -3.096780476721e-02      -2.056106216565e-02       0.000000000000e+00
     -2.738287350439e-02      -2.257182052801e-02       0.000000000000e+00
     -2.383022384522e-02      -2.450574053520e-02       0.000000000000e+00
     -2.031817596607e-02      -2.632185015069e-02       0.000000000000e+00
     -1.685149172091e-02      -2.797585241447e-02       0.000000000000e+00
     -1.343044263391e-02      -2.942062487110e-02       0.000000000000e+00
     -1.004979183134e-02      -3.060742895208e-02       0.000000000000e+00
     -6.697905793994e-03      -3.148800489385e-02       0.000000000000e+00
     -3.356313883851e-03      -3.201758339612e-02       0.000000000000e+00
      1.476561635492e-16      -3.215884073214e-02       0.000000000000e+00
     -7.256625258651e-02       0.000000000000e+00       0.000000000000e+00
     -7.237196436389e-02      -4.196678760542e-04       0.000000000000e+00
     -7.163873965739e-02      -8.957992954337e-04       0.000000000000e+00
     -7.042629943117e-02      -1.473765959994e-03       0.000000000000e+00
     -6.879836286138e-02      -2.185036888382e-03       0.000000000000e+00
     -6.681666305801e-02      -3.048201827876e-03       0.000000000000e+00
     -6.453707914582e-02      -4.070949456677e-03       0.000000000000e+00
     -6.200762328493e-02      -5.252545974079e-03       0.000000000000e+00
     -5.926796892653e-02      -6.586254932780e-03       0.000000000000e+00
     -5.635005425340e-02      -8.061403769032e-03       0.000000000000e+00
     -5.327932837288e-02      -9.664901586985e-03       0.000000000000e+00
     -5.007628375773e-02      -1.138226724459e-02       0.000000000000e+00
     -4.675808528069e-02      -1.319777848990e-02       0.000000000000e+00
     -4.506051876398e-02      -1.413732518416e-02       0.000000000000e+00
     -4.334154314389e-02      -1.509410155701e-02       0.000000000000e+00
     -3.985151264152e-02      -1.704597938925e-02       0.000000000000e+00
     -3.630311187908e-02      -1.903132373754e-02       0.000000000000e+00
     -3.270979761625e-02      -2.102579530481e-02       0.000000000000e+00
     -2.908504119108e-02      -2.300138917022e-02       0.000000000000e+00
     -2.544219832597e-02      -2.492502609543e-02       0.000000000000e+00
     -2.179374325250e-02      -2.675755943176e-02       0.000000000000e+00
     -1.815005921427e-02      -2.845310367227e-02       0.000000000000e+00
     -1.451778049105e-02      -2.995908192237e-02       0.000000000000e+00
     -1.089785796764e-02      -3.121734237179e-02       0.000000000000e+00
     -7.283631074177e-03      -3.216672994654e-02       0.000000000000e+00
     -3.659400339893e-03      -3.274731831188e-02       0.000000000000e+00
      1.569100964650e-16      -3.290649126263e-02       0.000000000000e+00
     -7.369346592688e-02       0.000000000000e+00       0.000000000000e+00
     -7.348818198280e-02      -5.039787033205e-04       0.000000000000e+00
     -7.271461296799e-02      -1.070954859068e-03       0.000000000000e+00
     -7.145148684862e-02      -1.750578195104e-03       0.000000000000e+00
     -6.978026683578e-02      -2.573009244927e-03       0.000000000000e+00
     -6.777658603280e-02      -3.551430211204e-03       0.000000000000e+00
     -6.550530577679e-02      -4.685762324477e-03       0.000000000000e+00
     -6.301852342071e-02      -5.966783408335e-03       0.000000000000e+00
     -6.035580465562e-02      -7.379809060574e-03       0.000000000000e+00
     -5.754577134806e-02      -8.907596859137e-03       0.000000000000e+00
     -5.460832356654e-02      -1.053234496601e-02       0.000000000000e+00
     -5.155703523359e-02      -1.223693005712e-02       0.000000000000e+00
     -4.840130181048e-02      -1.400520063894e-02       0.000000000000e+00
     -4.678657194224e-02      -1.490863336818e-02       0.000000000000e+00
     -4.514464717742e-02      -1.582458743596e-02       0.000000000000e+00
     -4.177168483188e-02      -1.769396554837e-02       0.000000000000e+00
     -3.828720190761e-02      -1.960226407896e-02       0.000000000000e+00
     -3.470188151577e-02      -2.153304572018e-02       0.000000000000e+00
     -3.102872425752e-02      -2.346512961496e-02       0.000000000000e+00
     -2.728271901696e-02      -2.537064050468e-02       0.000000000000e+00
     -2.347995497644e-02      -2.721317069901e-02       0.000000000000e+00
     -1.963608959126e-02      -2.894623541467e-02       0.000000000000e+00
     -1.576411772538e-02      -3.051250218457e-02       0.000000000000e+00