# vtk DataFile Version 3.0
plate_with_hole_C0_01.vtk
ASCII
DATASET UNSTRUCTURED_GRID
FIELD FieldData 2
TIME 1 1 double
0.000000e+00
CYCLE 1 1 int
1
POINTS 1404 double
     -1.000000000000e+00       0.000000000000e+00       0.000000000000e+00
     -9.983631810689e-01       5.719229568730e-02       0.000000000000e+00
     -9.933116387851e-01       1.154642293271e-01       0.000000000000e+00
     -9.846504941859e-01       1.745376873325e-01       0.000000000000e+00
     -9.722122813221e-01       2.341010039415e-01       0.000000000000e+00
     -9.558632461070e-01       2.938119377116e-01       0.000000000000e+00
     -9.355093373955e-01       3.533019666601e-01       0.000000000000e+00
     -9.111015816617e-01       4.121818869061e-01       0.000000000000e+00
     -8.826405246344e-01       4.700486190524e-01       0.000000000000e+00
     -8.501794386940e-01       5.264930408106e-01       0.000000000000e+00
     -8.138260360511e-01       5.811085811149e-01       0.000000000000e+00
     -7.737424943223e-01       6.335002387370e-01       0.000000000000e+00
     -7.301436895785e-01       6.832936356858e-01       0.000000000000e+00
     -7.071067811865e-01       7.071067811865e-01       0.000000000000e+00
     -6.832936356858e-01       7.301436895785e-01       0.000000000000e+00
     -6.335002387370e-01       7.737424943223e-01       0.000000000000e+00
     -5.811085811149e-01       8.138260360511e-01       0.000000000000e+00
     -5.264930408106e-01       8.501794386940e-01       0.000000000000e+00
     -4.700486190524e-01       8.826405246344e-01       0.000000000000e+00
     -4.121818869061e-01       9.111015816617e-01       0.000000000000e+00
     -3.533019666601e-01       9.355093373955e-01       0.000000000000e+00
     -2.938119377116e-01       9.558632461070e-01       0.000000000000e+00
     -2.341010039415e-01       9.722122813221e-01       0.000000000000e+00
     -1.745376873325e-01       9.846504941859e-01       0.000000000000e+00
     -1.154642293271e-01       9.933116387851e-01       0.000000000000e+00
     -5.719229568730e-02       9.983631810689e-01       0.000000000000e+00
      0.000000000000e+00       1.000000000000e+00       0.000000000000e+00
     -1.120000000000e+00       0.000000000000e+00       0.000000000000e+00
     -1.120595381118e+00       6.309118759241e-02       0.000000000000e+00
     -1.117031542457e+00       1.274499931321e-01       0.000000000000e+00
     -1.109076621681e+00       1.927993364507e-01       0.000000000000e+00
     -1.096529692814e+00       2.588293898761e-01       0.000000000000e+00
     -1.079227490372e+00       3.252003406287e-01       0.000000000000e+00
     -1.057050785440e+00       3.915463168278e-01       0.000000000000e+00
     -1.029930111638e+00       4.574804593924e-01       0.000000000000e+00
     -9.978505342983e-01       5.226010569546e-01       0.000000000000e+00
     -9.608551727904e-01       5.864985923714e-01       0.000000000000e+00
     -9.190472252310e-01       6.487634831321e-01       0.000000000000e+00
     -8.725903064199e-01       7.089942401585e-01       0.000000000000e+00
     -8.217069905302e-01       7.668057263009e-01       0.000000000000e+00
     -7.946903419140e-01       7.946903419140e-01       0.000000000000e+00
     -7.668057263009e-01       8.217069905302e-01       0.000000000000e+00
     -7.089942401585e-01       8.725903064199e-01       0.000000000000e+00
     -6.487634831321e-01       9.190472252310e-01       0.000000000000e+00
     -5.864985923714e-01       9.608551727904e-01       0.000000000000e+00
     -5.226010569546e-01       9.978505342983e-01       0.000000000000e+00
     -4.574804593924e-01       1.029930111638e+00       0.000000000000e+00
     -3.915463168278e-01       1.057050785440e+00       0.000000000000e+00
     -3.252003406287e-01       1.079227490372e+00       0.000000000000e+00
     -2.588293898761e-01       1.096529692814e+00       0.000000000000e+00
     -1.927993364507e-01       1.109076621681e+00       0.000000000000e+00
     -1.274499931321e-01       1.117031542457e+00       0.000000000000e+00
     -6.309118759241e-02       1.120595381118e+00       0.000000000000e+00
      0.000000000000e+00       1.120000000000e+00       0.000000000000e+00
     -1.240000000000e+00       0.000000000000e+00       0.000000000000e+00
     -1.242437224181e+00       7.037241658035e-02       0.000000000000e+00
     -1.240045398146e+00       1.420341835673e-01       0.000000000000e+00
     -1.232569729145e+00       2.146965986817e-01       0.000000000000e+00
     -1.219789084738e+00       2.880401421491e-01       0.000000000000e+00
     -1.201522703910e+00       3.617173275937e-01       0.000000000000e+00
     -1.177636519131e+00       4.353565681385e-01       0.000000000000e+00
     -1.148048812117e+00       5.085670273398e-01       0.000000000000e+00
     -1.112734925714e+00       5.809443718673e-01       0.000000000000e+00
     -1.071730771811e+00       6.520772886853e-01       0.000000000000e+00
     -1.025134911552e+00       7.215545780909e-01       0.000000000000e+00
     -9.731090385935e-01       7.889725898172e-01       0.000000000000e+00
     -9.158767660410e-01       8.539427368440e-01       0.000000000000e+00
     -8.853943539493e-01       8.853943539493e-01       0.000000000000e+00
     -8.539427368440e-01       9.158767660410e-01       0.000000000000e+00
     -7.889725898172e-01       9.731090385935e-01       0.000000000000e+00
     -7.215545780909e-01       1.025134911552e+00       0.000000000000e+00
     -6.520772886853e-01       1.071730771811e+00       0.000000000000e+00
     -5.809443718673e-01       1.112734925714e+00       0.000000000000e+00
     -5.085670273398e-01       1.148048812117e+00       0.000000000000e+00
     -4.353565681385e-01       1.177636519131e+00       0.000000000000e+00
     -3.617173275937e-01       1.201522703910e+00       0.000000000000e+00
     -2.880401421491e-01       1.219789084738e+00       0.000000000000e+00
     -2.146965986817e-01       1.232569729145e+00       0.000000000000e+00
     -1.420341835673e-01       1.240045398146e+00       0.000000000000e+00
     -7.037241658035e-02       1.242437224181e+00       0.000000000000e+00
      0.000000000000e+00       1.240000000000e+00       0.000000000000e+00
     -1.360000000000e+00       0.000000000000e+00       0.000000000000e+00
     -1.363917503820e+00       7.903044356901e-02       0.000000000000e+00
     -1.362412983653e+00       1.591968988885e-01       0.000000000000e+00
     -1.355220518177e+00       2.401898427224e-01       0.000000000000e+00
     -1.342109677779e+00       3.216719896096e-01       0.000000000000e+00
     -1.322891908947e+00       4.032813984480e-01       0.000000000000e+00
     -1.297426500507e+00       4.846354446029e-01       0.000000000000e+00
     -1.265625889416e+00       5.653356113873e-01       0.000000000000e+00
     -1.227460067089e+00       6.449730127540e-01       0.000000000000e+00
     -1.182959864825e+00       7.231345172783e-01       0.000000000000e+00
     -1.132218929235e+00       7.994093050768e-01       0.000000000000e+00
     -1.075394244959e+00       8.733956573905e-01       0.000000000000e+00
     -1.012705120108e+00       9.447077560962e-01       0.000000000000e+00
     -9.792463666736e-01       9.792463666736e-01       0.000000000000e+00
     -9.447077560962e-01       1.012705120108e+00       0.000000000000e+00
     -8.733956573905e-01       1.075394244959e+00       0.000000000000e+00
     -7.994093050768e-01       1.132218929235e+00       0.000000000000e+00
     -7.231345172783e-01       1.182959864825e+00       0.000000000000e+00
     -6.449730127540e-01       1.227460067089e+00       0.000000000000e+00
     -5.653356113873e-01       1.265625889416e+00       0.000000000000e+00
     -4.846354446029e-01       1.297426500507e+00       0.000000000000e+00
     -4.032813984480e-01       1.322891908947e+00       0.000000000000e+00
     -3.216719896096e-01       1.342109677779e+00       0.000000000000e+00
     -2.401898427224e-01       1.355220518177e+00       0.000000000000e+00
     -1.591968988885e-01       1.362412983653e+00       0.000000000000e+00
     -7.903044356901e-02       1.363917503820e+00       0.000000000000e+00
      0.000000000000e+00       1.360000000000e+00       0.000000000000e+00
     -1.480000000000e+00       0.000000000000e+00       0.000000000000e+00
     -1.485064661171e+00       8.906037096269e-02       0.000000000000e+00
     -1.484192742471e+00       1.789206993230e-01       0.000000000000e+00
     -1.477116917122e+00       2.692446577967e-01       0.000000000000e+00
     -1.463606264219e+00       3.596722408419e-01       0.000000000000e+00
     -1.443472117446e+00       4.498231867015e-01       0.000000000000e+00
     -1.416573484003e+00       5.393011131242e-01       0.000000000000e+00
     -1.382821830496e+00       6.276983063261e-01       0.000000000000e+00
     -1.342185038168e+00       7.146010701928e-01       0.000000000000e+00
     -1.294690346575e+00       7.995955116395e-01       0.000000000000e+00
     -1.240426132538e+00       8.822736106335e-01       0.000000000000e+00
     -1.179542409337e+00       9.622394018368e-01       0.000000000000e+00
     -1.112249977827e+00       1.039115081024e+00       0.000000000000e+00
     -1.076282476349e+00       1.076282476349e+00       0.000000000000e+00
     -1.039115081024e+00       1.112249977827e+00       0.000000000000e+00
     -9.622394018368e-01       1.179542409337e+00       0.000000000000e+00
     -8.822736106335e-01       1.240426132538e+00       0.000000000000e+00
     -7.995955116395e-01       1.294690346575e+00       0.000000000000e+00
     -7.146010701928e-01       1.342185038168e+00       0.000000000000e+00
     -6.276983063261e-01       1.382821830496e+00       0.000000000000e+00
     -5.393011131242e-01       1.416573484003e+00       0.000000000000e+00
     -4.498231867015e-01       1.443472117446e+00       0.000000000000e+00
     -3.596722408419e-01       1.463606264219e+00       0.000000000000e+00
[...]
POINT_DATA 1404
VECTORS DSPL double
      0.000000000000e+00       0.000000000000e+00       0.000000000000e+00
      0.000000000000e+00       0.000000000000e+00       0.000000000000e+00
      0.000000000000e+00       0.000000000000e+00       0.000000000000e+00
      0.000000000000e+00       0.000000000000e+00       0.000000000000e+00
      0.000000000000e+00       0.000000000000e+00       0.000000000000e+00
      0.000000000000e+00       0.000000000000e+00       0.000000000000e+00
      0.000000000000e+00       0.000000000000e+00       0.000000000000e+00
      0.000000000000e+00       0.000000000000e+00       0.000000000000e+00
      0.000000000000e+00       0.000000000000e+00       0.000000000000e+00
      0.000000000000e+00       0.000000000000e+00       0.000000000000e+00
      0.000000000000e+00       0.000000000000e+00       0.000000000000e+00
      0.000000000000e+00       0.000000000000e+00       0.000000000000e+00
      0.000000000000e+00       0.000000000000e+00       0.000000000000e+00
      0.000000000000e+00       0.000000000000e+00       0.000000000000e+00
      0.000000000000e+00       0.000000000000e+00       0.000000000000e+00
      0.000000000000e+00       0.000000000000e+00       0.000000000000e+00
      0.000000000000e+00       0.000000000000e+00       0.000000000000e+00
      0.000000000000e+00       0.000000000000e+00       0.000000000000e+00
      0.000000000000e+00       0.000000000000e+00       0.000000000000e+00
      0.000000000000e+00       0.000000000000e+00       0.000000000000e+00
      0.000000000000e+00       0.000000000000e+00       0.000000000000e+00
      0.000000000000e+00       0.000000000000e+00       0.000000000000e+00
      0.000000000000e+00       0.000000000000e+00       0.000000000000e+00
      0.000000000000e+00       0.000000000000e+00       0.000000000000e+00
      0.000000000000e+00       0.000000000000e+00       0.000000000000e+00
      0.000000000000e+00       0.000000000000e+00       0.000000000000e+00
      0.000000000000e+00       0.000000000000e+00       0.000000000000e+00
      0.000000000000e+00       0.000000000000e+00       0.000000000000e+00
      0.000000000000e+00       0.000000000000e+00       0.000000000000e+00
      0.000000000000e+00       0.000000000000e+00       0.000000000000e+00
      0.000000000000e+00       0.000000000000e+00       0.000000000000e+00
      0.000000000000e+00       0.000000000000e+00       0.000000000000e+00
      0.000000000000e+00       0.000000000000e+00       0.000000000000e+00
      0.000000000000e+00       0.000000000000e+00       0.000000000000e+00
      0.000000000000e+00       0.000000000000e+00       0.000000000000e+00
      0.000000000000e+00       0.000000000000e+00       0.000000000000e+00
      0.000000000000e+00       0.000000000000e+00       0.000000000000e+00
      0.000000000000e+00       0.000000000000e+00       0.000000000000e+00
      0.000000000000e+00       0.000000000000e+00       0.000000000000e+00
      0.000000000000e+00       0.000000000000e+00       0.000000000000e+00
      0.000000000000e+00       0.000000000000e+00       0.000000000000e+00
      0.000000000000e+00       0.000000000000e+00       0.000000000000e+00
      0.000000000000e+00       0.000000000000e+00       0.000000000000e+00
      0.000000000000e+00       0.000000000000e+00       0.000000000000e+00
      0.000000000000e+00       0.000000000000e+00       0.000000000000e+00
      0.000000000000e+00       0.000000000000e+00       0.000000000000e+00
      0.000000000000e+00       0.000000000000e+00       0.000000000000e+00
      0.000000000000e+00       0.000000000000e+00       0.000000000000e+00
      0.000000000000e+00       0.000000000000e+00       0.000000000000e+00
      0.000000000000e+00       0.000000000000e+00       0.000000000000e+00
      0.000000000000e+00       0.000000000000e+00       0.000000000000e+00
      0.000000000000e+00       0.000000000000e+00       0.000000000000e+00
      0.000000000000e+00       0.000000000000e+00       0.000000000000e+00
      0.000000000000e+00       0.000000000000e+00       0.000000000000e+00
      0.000000000000e+00       0.000000000000e+00       0.000000000000e+00
      0.000000000000e+00       0.000000000000e+00       0.000000000000e+00
      0.000000000000e+00       0.000000000000e+00       0.000000000000e+00
      0.000000000000e+00       0.000000000000e+00       0.000000000000e+00
      0.000000000000e+00       0.000000000000e+00       0.000000000000e+00
      0.000000000000e+00       0.000000000000e+00       0.000000000000e+00
      0.000000000000e+00       0.000000000000e+00       0.000000000000e+00
      0.000000000000e+00       0.000000000000e+00       0.000000000000e+00
      0.000000000000e+00       0.000000000000e+00       0.000000000000e+00
      0.000000000000e+00       0.000000000000e+00       0.000000000000e+00
      0.000000000000e+00       0.000000000000e+00       0.000000000000e+00
      0.000000000000e+00       0.000000000000e+00       0.000000000000e+00
      0.000000000000e+00       0.000000000000e+00       0.000000000000e+00
      0.000000000000e+00       0.000000000000e+00       0.000000000000e+00
      0.000000000000e+00       0.000000000000e+00       0.000000000000e+00
      0.000000000000e+00       0.000000000000e+00       0.000000000000e+00
      0.000000000000e+00       0.000000000000e+00       0.000000000000e+00
      0.000000000000e+00       0.000000000000e+00       0.000000000000e+00
      0.000000000000e+00       0.000000000000e+00       0.000000000000e+00
      0.000000000000e+00       0.000000000000e+00       0.000000000000e+00
      0.000000000000e+00       0.000000000000e+00       0.000000000000e+00
      0.000000000000e+00       0.000000000000e+00       0.000000000000e+00
      0.000000000000e+00       0.000000000000e+00       0.000000000000e+00
      0.000000000000e+00       0.000000000000e+00       0.000000000000e+00
      0.000000000000e+00       0.000000000000e+00       0.000000000000e+00
      0.000000000000e+00       0.000000000000e+00       0.000000000000e+00
      0.000000000000e+00       0.000000000000e+00       0.000000000000e+00
      0.000000000000e+00       0.000000000000e+00       0.000000000000e+00
      0.000000000000e+00       0.000000000000e+00       0.000000000000e+00
      0.000000000000e+00       0.000000000000e+00       0.000000000000e+00
      0.000000000000e+00       0.000000000000e+00       0.000000000000e+00
      0.000000000000e+00       0.000000000000e+00       0.000000000000e+00
      0.000000000000e+00       0.000000000000e+00       0.000000000000e+00
      0.000000000000e+00       0.000000000000e+00       0.000000000000e+00
      0.000000000000e+00       0.000000000000e+00       0.000000000000e+00
      0.000000000000e+00       0.000000000000e+00       0.000000000000e+00
      0.000000000000e+00       0.000000000000e+00       0.000000000000e+00
      0.000000000000e+00       0.000000000000e+00       0.000000000000e+00
      0.000000000000e+00       0.000000000000e+00       0.000000000000e+00
      0.000000000000e+00       0.000000000000e+00       0.000000000000e+00
      0.000000000000e+00       0.000000000000e+00       0.000000000000e+00
      0.000000000000e+00       0.000000000000e+00       0.000000000000e+00
      0.000000000000e+00       0.000000000000e+00       0.000000000000e+00
      0.000000000000e+00       0.000000000000e+00       0.000000000000e+00
      0.000000000000e+00       0.000000000000e+00       0.000000000000e+00
      0.000000000000e+00       0.000000000000e+00       0.000000000000e+00
      0.000000000000e+00       0.000000000000e+00       0.000000000000e+00
      0.000000000000e+00       0.000000000000e+00       0.000000000000e+00
      0.000000000000e+00       0.000000000000e+00       0.000000000000e+00
      0.000000000000e+00       0.000000000000e+00       0.000000000000e+00
      0.000000000000e+00       0.000000000000e+00       0.000000000000e+00
      0.000000000000e+00       0.000000000000e+00       0.000000000000e+00
      0.000000000000e+00       0.000000000000e+00       0.000000000000e+00
      0.000000000000e+00       0.000000000000e+00       0.000000000000e+00
      0.000000000000e+00       0.000000000000e+00       0.000000000000e+00
      0.000000000000e+00       0.000000000000e+00       0.000000000000e+00
      0.000000000000e+00       0.000000000000e+00       0.000000000000e+00
      0.000000000000e+00       0.000000000000e+00       0.000000000000e+00
      0.000000000000e+00       0.000000000000e+00       0.000000000000e+00
      0.000000000000e+00       0.000000000000e+00       0.000000000000e+00
      0.000000000000e+00       0.000000000000e+00       0.000000000000e+00
      0.000000000000e+00       0.000000000000e+00       0.000000000000e+00
      0.000000000000e+00       0.000000000000e+00       0.000000000000e+00
      0.000000000000e+00       0.000000000000e+00       0.000000000000e+00
      0.000000000000e+00       0.000000000000e+00       0.000000000000e+00
      0.000000000000e+00       0.000000000000e+00       0.000000000000e+00
      0.000000000000e+00       0.000000000000e+00       0.000000000000e+00
      0.000000000000e+00       0.000000000000e+00       0.000000000000e+00
      0.000000000000e+00       0.000000000000e+00       0.000000000000e+00
      0.000000000000e+00       0.000000000000e+00       0.000000000000e+00
      0.000000000000e+00       0.000000000000e+00       0.000000000000e+00
      0.000000000000e+00       0.000000000000e+00       0.000000000000e+00
      0.000000000000e+00       0.000000000000e+00       0.000000000000e+00
      0.000000000000e+00       0.000000000000e+00       0.000000000000e+00
      0.000000000000e+00       0.000000000000e+00       0.000000000000e+00
      0.000000000000e+00       0.000000000000e+00       0.000000000000e+00
      0.000000000000e+00       0.000000000000e+00       0.000000000000e+00
      0.000000000000e+00       0.000000000000e+00       0.000000000000e+00
      0.000000000000e+00       0.000000000000e+00       0.000000000000e+00
      0.000000000000e+00       0.000000000000e+00       0.000000000000e+00
      0.000000000000e+00       0.000000000000e+00       0.000000000000e+00
      0.000000000000e+00       0.000000000000e+00       0.000000000000e+00
      0.000000000000e+00       0.000000000000e+00       0.000000000000e+00
      0.000000000000e+00       0.000000000000e+00       0.000000000000e+00
      0.000000000000e+00       0.000000000000e+00       0.000000000000e+00
      0.000000000000e+00       0.000000000000e+00       0.000000000000e+00
      0.000000000000e+00       0.000000000000e+00       0.000000000000e+00
      0.000000000000e+00       0.000000000000e+00       0.000000000000e+00
      0.000000000000e+00       0.000000000000e+00       0.000000000000e+00
      0.000000000000e+00       0.000000000000e+00       0.000000000000e+00
      0.000000000000e+00       0.000000000000e+00       0.000000000000e+00
      0.000000000000e+00       0.000000000000e+00       0.000000000000e+00
      0.000000000000e+00       0.000000000000e+00       0.000000000000e+00
      0.000000000000e+00       0.000000000000e+00       0.000000000000e+00
      0.000000000000e+00       0.000000000000e+00       0.000000000000e+00
      0.000000000000e+00       0.000000000000e+00       0.000000000000e+00
      0.000000000000e+00       0.000000000000e+00       0.000000000000e+00
      0.000000000000e+00       0.000000000000e+00       0.000000000000e+00
      0.000000000000e+00       0.000000000000e+00       0.000000000000e+00
      0.000000000000e+00       0.000000000000e+00       0.000000000000e+00
      0.000000000000e+00       0.000000000000e+00       0.000000000000e+00
      0.000000000000e+00       0.000000000000e+00       0.000000000000e+00
      0.000000000000e+00       0.000000000000e+00       0.000000000000e+00
      0.000000000000e+00       0.000000000000e+00       0.000000000000e+00
      0.000000000000e+00       0.000000000000e+00       0.000000000000e+00
      0.000000000000e+00       0.000000000000e+00       0.000000000000e+00
      0.000000000000e+00       0.000000000000e+00       0.000000000000e+00
      0.000000000000e+00       0.000000000000e+00       0.000000000000e+00
      0.000000000000e+00       0.000000000000e+00       0.000000000000e+00
      0.000000000000e+00       0.000000000000e+00       0.000000000000e+00
      0.000000000000e+00       0.000000000000e+00       0.000000000000e+00
      0.000000000000e+00       0.000000000000e+00       0.000000000000e+00
      0.000000000000e+00       0.000000000000e+00       0.000000000000e+00
      0.000000000000e+00       0.000000000000e+00       0.000000000000e+00
      0.000000000000e+00       0.000000000000e+00       0.000000000000e+00
      0.000000000000e+00       0.000000000000e+00       0.000000000000e+00
      0.000000000000e+00       0.000000000000e+00       0.000000000000e+00
      0.000000000000e+00       0.000000000000e+00       0.000000000000e+00
      0.000000000000e+00       0.000000000000e+00       0.000000000000e+00
      0.000000000000e+00       0.000000000000e+00       0.000000000000e+00
      0.000000000000e+00       0.000000000000e+00       0.000000000000e+00
      0.000000000000e+00       0.000000000000e+00       0.000000000000e+00
      0.000000000000e+00       0.000000000000e+00       0.000000000000e+00
      0.000000000000e+00       0.000000000000e+00       0.000000000000e+00
      0.000000000000e+00       0.000000000000e+00       0.000000000000e+00
      0.000000000000e+00       0.000000000000e+00       0.000000000000e+00
      0.000000000000e+00       0.000000000000e+00       0.000000000000e+00
      0.000000000000e+00       0.000000000000e+00       0.000000000000e+00
      0.000000000000e+00       0.000000000000e+00       0.000000000000e+00
      0.000000000000e+00       0.000000000000e+00       0.000000000000e+00
      0.000000000000e+00       0.000000000000e+00       0.000000000000e+00
      0.000000000000e+00       0.000000000000e+00       0.000000000000e+00
      0.000000000000e+00       0.000000000000e+00       0.000000000000e+00
      0.000000000000e+00       0.000000000000e+00       0.000000000000e+00
      0.000000000000e+00       0.000000000000e+00       0.000000000000e+00
      0.000000000000e+00       0.000000000000e+00       0.000000000000e+00
      0.000000000000e+00       0.000000000000e+00       0.000000000000e+00
      0.000000000000e+00       0.000000000000e+00       0.000000000000e+00
      0.000000000000e+00       0.000000000000e+00       0.000000000000e+00
      0.000000000000e+00       0.000000000000e+00       0.000000000000e+00
      0.000000000000e+00       0.000000000000e+00       0.000000000000e+00
      0.000000000000e+00       0.000000000000e+00       0.000000000000e+00
      0.000000000000e+00       0.000000000000e+00       0.000000000000e+00
      0.000000000000e+00       0.000000000000e+00       0.000000000000e+00
      0.000000000000e+00       0.000000000000e+00       0.000000000000e+00
      0.000000000000e+00       0.000000000000e+00       0.000000000000e+00
      0.000000000000e+00       0.000000000000e+00       0.000000000000e+00
      0.000000000000e+00       0.000000000000e+00       0.000000000000e+00
      0.000000000000e+00       0.000000000000e+00       0.000000000000e+00
      0.000000000000e+00       0.000000000000e+00       0.000000000000e+00
      0.000000000000e+00       0.000000000000e+00       0.000000000000e+00
      0.000000000000e+00       0.000000000000e+00       0.000000000000e+00
      0.000000000000e+00       0.000000000000e+00       0.000000000000e+00
      0.000000000000e+00       0.000000000000e+00       0.000000000000e+00
      0.000000000000e+00       0.000000000000e+00       0.000000000000e+00
      0.000000000000e+00       0.000000000000e+00       0.000000000000e+00
      0.000000000000e+00       0.000000000000e+00       0.000000000000e+00
      0.000000000000e+00       0.000000000000e+00       0.000000000000e+00
      0.000000000000e+00       0.000000000000e+00       0.000000000000e+00
      0.000000000000e+00       0.000000000000e+00       0.000000000000e+00
      0.000000000000e+00       0.000000000000e+00       0.000000000000e+00
      0.000000000000e+00       0.000000000000e+00       0.000000000000e+00
      0.000000000000e+00       0.000000000000e+00       0.000000000000e+00
      0.000000000000e+00       0.000000000000e+00       0.000000000000e+00
      0.000000000000e+00       0.000000000000e+00       0.000000000000e+00
      0.000000000000e+00       0.000000000000e+00       0.000000000000e+00
      0.000000000000e+00       0.000000000000e+00       0.000000000000e+00
      0.000000000000e+00       0.000000000000e+00       0.000000000000e+00
      0.000000000000e+00       0.000000000000e+00       0.000000000000e+00
      0.000000000000e+00       0.000000000000e+00       0.000000000000e+00
      0.000000000000e+00       0.000000000000e+00       0.000000000000e+00
      0.000000000000e+00       0.000000000000e+00       0.000000000000e+00
      0.000000000000e+00       0.000000000000e+00       0.000000000000e+00
      0.000000000000e+00       0.000000000000e+00       0.000000000000e+00
      0.000000000000e+00       0.000000000000e+00       0.000000000000e+00
      0.000000000000e+00       0.000000000000e+00       0.000000000000e+00
      0.000000000000e+00       0.000000000000e+00       0.000000000000e+00
      0.000000000000e+00       0.000000000000e+00       0.000000000000e+00
      0.000000000000e+00       0.000000000000e+00       0.000000000000e+00
      0.000000000000e+00       0.000000000000e+00       0.000000000000e+00
      0.000000000000e+00       0.000000000000e+00       0.000000000000e+00
      0.000000000000e+00       0.000000000000e+00       0.000000000000e+00
      0.000000000000e+00       0.000000000000e+00       0.000000000000e+00
      0.000000000000e+00       0.000000000000e+00       0.000000000000e+00
      0.000000000000e+00       0.000000000000e+00       0.000000000000e+00
      0.000000000000e+00       0.000000000000e+00       0.000000000000e+00
      0.000000000000e+00       0.000000000000e+00       0.000000000000e+00
      0.000000000000e+00       0.000000000000e+00       0.000000000000e+00
      0.000000000000e+00       0.000000000000e+00       0.000000000000e+00
      0.000000000000e+00       0.000000000000e+00       0.000000000000e+00
      0.000000000000e+00       0.000000000000e+00       0.000000000000e+00
      0.000000000000e+00       0.000000000000e+00       0.000000000000e+00
      0.000000000000e+00       0.000000000000e+00       0.000000000000e+00
      0.000000000000e+00       0.000000000000e+00       0.000000000000e+00
      0.000000000000e+00       0.000000000000e+00       0.000000000000e+00
      0.000000000000e+00       0.000000000000e+00       0.000000000000e+00
      0.000000000000e+00       0.000000000000e+00       0.000000000000e+00
      0.000000000000e+00       0.000000000000e+00       0.000000000000e+00
      0.000000000000e+00       0.000000000000e+00       0.000000000000e+00
      0.000000000000e+00       0.000000000000e+00       0.000000000000e+00
      0.000000000000e+00       0.000000000000e+00       0.000000000000e+00
      0.000000000000e+00       0.000000000000e+00       0.000000000000e+00
      0.000000000000e+00       0.000000000000e+00       0.000000000000e+00
      0.000000000000e+00       0.000000000000e+00       0.000000000000e+00
      0.000000000000e+00       0.000000000000e+00       0.000000000000e+00
      0.000000000000e+00       0.000000000000e+00       0.000000000000e+00
      0.000000000000e+00       0.000000000000e+00       0.000000000000e+00
      0.000000000000e+00       0.000000000000e+00       0.000000000000e+00
      0.000000000000e+00       0.000000000000e+00       0.000000000000e+00
      0.000000000000e+00       0.000000000000e+00       0.000000000000e+00
      0.000000000000e+00       0.000000000000e+00       0.000000000000e+00
      0.000000000000e+00       0.000000000000e+00       0.000000000000e+00