# vtk DataFile Version 3.0
plate_with_hole_C1_02.vtk
ASCII
DATASET UNSTRUCTURED_GRID
FIELD FieldData 2
TIME 1 1 double
1.000000e+00
CYCLE 1 1 int
2
POINTS 1404 double
     -1.000000000000e+00       0.000000000000e+00       0.000000000000e+00
     -9.983631810689e-01       5.719229568730e-02       0.000000000000e+00
     -9.933116387851e-01       1.154642293271e-01       0.000000000000e+00
     -9.846504941859e-01       1.745376873325e-01       0.000000000000e+00
     -9.722122813221e-01       2.341010039415e-01       0.000000000000e+00
     -9.558632461070e-01       2.938119377116e-01       0.000000000000e+00
     -9.355093373955e-01       3.533019666601e-01       0.000000000000e+00
     -9.111015816617e-01       4.121818869061e-01       0.000000000000e+00
     -8.826405246344e-01       4.700486190524e-01       0.000000000000e+00
     -8.501794386940e-01       5.264930408106e-01       0.000000000000e+00
     -8.138260360511e-01       5.811085811149e-01       0.000000000000e+00
     -7.737424943223e-01       6.335002387370e-01       0.000000000000e+00
     -7.301436895785e-01       6.832936356858e-01       0.000000000000e+00
     -7.071067811865e-01       7.071067811865e-01       0.000000000000e+00
     -6.832936356858e-01       7.301436895785e-01       0.000000000000e+00
     -6.335002387370e-01       7.737424943223e-01       0.000000000000e+00
     -5.811085811149e-01       8.138260360511e-01       0.000000000000e+00
     -5.264930408106e-01       8.501794386940e-01       0.000000000000e+00
     -4.700486190524e-01       8.826405246344e-01       0.000000000000e+00
     -4.121818869061e-01       9.111015816617e-01       0.000000000000e+00
     -3.533019666601e-01       9.355093373955e-01       0.000000000000e+00
     -2.938119377116e-01       9.558632461070e-01       0.000000000000e+00
     -2.341010039415e-01       9.722122813221e-01       0.000000000000e+00
     -1.745376873325e-01       9.846504941859e-01       0.000000000000e+00
     -1.154642293271e-01       9.933116387851e-01       0.000000000000e+00
     -5.719229568730e-02       9.983631810689e-01       0.000000000000e+00
      0.000000000000e+00       1.000000000000e+00       0.000000000000e+00
     -1.120000000000e+00       0.000000000000e+00       0.000000000000e+00
     -1.120595381118e+00       6.309118759241e-02       0.000000000000e+00
     -1.117031542457e+00       1.274499931321e-01       0.000000000000e+00
     -1.109076621681e+00       1.927993364507e-01       0.000000000000e+00
     -1.096529692814e+00       2.588293898761e-01       0.000000000000e+00
     -1.079227490372e+00       3.252003406287e-01       0.000000000000e+00
     -1.057050785440e+00       3.915463168278e-01       0.000000000000e+00
     -1.029930111638e+00       4.574804593924e-01       0.000000000000e+00
     -9.978505342983e-01       5.226010569546e-01       0.000000000000e+00
     -9.608551727904e-01       5.864985923714e-01       0.000000000000e+00
     -9.190472252310e-01       6.487634831321e-01       0.000000000000e+00
     -8.725903064199e-01       7.089942401585e-01       0.000000000000e+00
     -8.217069905302e-01       7.668057263009e-01       0.000000000000e+00
     -7.946903419140e-01       7.946903419140e-01       0.000000000000e+00
     -7.668057263009e-01       8.217069905302e-01       0.000000000000e+00
     -7.089942401585e-01       8.725903064199e-01       0.000000000000e+00
     -6.487634831321e-01       9.190472252310e-01       0.000000000000e+00
     -5.864985923714e-01       9.608551727904e-01       0.000000000000e+00
     -5.226010569546e-01       9.978505342983e-01       0.000000000000e+00
     -4.574804593924e-01       1.029930111638e+00       0.000000000000e+00
     -3.915463168278e-01       1.057050785440e+00       0.000000000000e+00
     -3.252003406287e-01       1.079227490372e+00       0.000000000000e+00
     -2.588293898761e-01       1.096529692814e+00       0.000000000000e+00
     -1.927993364507e-01       1.109076621681e+00       0.000000000000e+00
     -1.274499931321e-01       1.117031542457e+00       0.000000000000e+00
     -6.309118759241e-02       1.120595381118e+00       0.000000000000e+00
      0.000000000000e+00       1.120000000000e+00       0.000000000000e+00
     -1.240000000000e+00       0.000000000000e+00       0.000000000000e+00
     -1.242437224181e+00       7.037241658035e-02       0.000000000000e+00
     -1.240045398146e+00       1.420341835673e-01       0.000000000000e+00
     -1.232569729145e+00       2.146965986817e-01       0.000000000000e+00
     -1.219789084738e+00       2.880401421491e-01       0.000000000000e+00
     -1.201522703910e+00       3.617173275937e-01       0.000000000000e+00
     -1.177636519131e+00       4.353565681385e-01       0.000000000000e+00
     -1.148048812117e+00       5.085670273398e-01       0.000000000000e+00
     -1.112734925714e+00       5.809443718673e-01       0.000000000000e+00
     -1.071730771811e+00       6.520772886853e-01       0.000000000000e+00
     -1.025134911552e+00       7.215545780909e-01       0.000000000000e+00
     -9.731090385935e-01       7.889725898172e-01       0.000000000000e+00
     -9.158767660410e-01       8.539427368440e-01       0.000000000000e+00
     -8.853943539493e-01       8.853943539493e-01       0.000000000000e+00
     -8.539427368440e-01       9.158767660410e-01       0.000000000000e+00
     -7.889725898172e-01       9.731090385935e-01       0.000000000000e+00
     -7.215545780909e-01       1.025134911552e+00       0.000000000000e+00
     -6.520772886853e-01       1.071730771811e+00       0.000000000000e+00
     -5.809443718673e-01       1.112734925714e+00       0.000000000000e+00
     -5.085670273398e-01       1.148048812117e+00       0.000000000000e+00
     -4.353565681385e-01       1.177636519131e+00       0.000000000000e+00
     -3.617173275937e-01       1.201522703910e+00       0.000000000000e+00
     -2.880401421491e-01       1.219789084738e+00       0.000000000000e+00
     -2.146965986817e-01       1.232569729145e+00       0.000000000000e+00
     -1.420341835673e-01       1.240045398146e+00       0.000000000000e+00
     -7.037241658035e-02       1.242437224181e+00       0.000000000000e+00
      0.000000000000e+00       1.240000000000e+00       0.000000000000e+00
     -1.360000000000e+00       0.000000000000e+00       0.000000000000e+00
     -1.363917503820e+00       7.903044356901e-02       0.000000000000e+00
     -1.362412983653e+00       1.591968988885e-01       0.000000000000e+00
     -1.355220518177e+00       2.401898427224e-01       0.000000000000e+00
     -1.342109677779e+00       3.216719896096e-01       0.000000000000e+00
     -1.322891908947e+00       4.032813984480e-01       0.000000000000e+00
     -1.297426500507e+00       4.846354446029e-01       0.000000000000e+00
     -1.265625889416e+00       5.653356113873e-01       0.000000000000e+00
     -1.227460067089e+00       6.449730127540e-01       0.000000000000e+00
     -1.182959864825e+00       7.231345172783e-01       0.000000000000e+00
     -1.132218929235e+00       7.994093050768e-01       0.000000000000e+00
     -1.075394244959e+00       8.733956573905e-01       0.000000000000e+00
     -1.012705120108e+00       9.447077560962e-01       0.000000000000e+00
     -9.792463666736e-01       9.792463666736e-01       0.000000000000e+00
     -9.447077560962e-01       1.012705120108e+00       0.000000000000e+00
     -8.733956573905e-01       1.075394244959e+00       0.000000000000e+00
     -7.994093050768e-01       1.132218929235e+00       0.000000000000e+00
     -7.231345172783e-01       1.182959864825e+00       0.000000000000e+00
     -6.449730127540e-01       1.227460067089e+00       0.000000000000e+00
     -5.653356113873e-01       1.265625889416e+00       0.000000000000e+00
     -4.846354446029e-01       1.297426500507e+00       0.000000000000e+00
     -4.032813984480e-01       1.322891908947e+00       0.000000000000e+00
     -3.216719896096e-01       1.342109677779e+00       0.000000000000e+00
     -2.401898427224e-01       1.355220518177e+00       0.000000000000e+00
     -1.591968988885e-01       1.362412983653e+00       0.000000000000e+00
     -7.903044356901e-02       1.363917503820e+00       0.000000000000e+00
      0.000000000000e+00       1.360000000000e+00       0.000000000000e+00
     -1.480000000000e+00       0.000000000000e+00       0.000000000000e+00
     -1.485064661171e+00       8.906037096269e-02       0.000000000000e+00
     -1.484192742471e+00       1.789206993230e-01       0.000000000000e+00
     -1.477116917122e+00       2.692446577967e-01       0.000000000000e+00
     -1.463606264219e+00       3.596722408419e-01       0.000000000000e+00
     -1.443472117446e+00       4.498231867015e-01       0.000000000000e+00
     -1.416573484003e+00       5.393011131242e-01       0.000000000000e+00
     -1.382821830496e+00       6.276983063261e-01       0.000000000000e+00
     -1.342185038168e+00       7.146010701928e-01       0.000000000000e+00
     -1.294690346575e+00       7.995955116395e-01       0.000000000000e+00
     -1.240426132538e+00       8.822736106335e-01       0.000000000000e+00
     -1.179542409337e+00       9.622394018368e-01       0.000000000000e+00
     -1.112249977827e+00       1.039115081024e+00       0.000000000000e+00
     -1.076282476349e+00       1.076282476349e+00       0.000000000000e+00
     -1.039115081024e+00       1.112249977827e+00       0.000000000000e+00
     -9.622394018368e-01       1.179542409337e+00       0.000000000000e+00
     -8.822736106335e-01       1.240426132538e+00       0.000000000000e+00
     -7.995955116395e-01       1.294690346575e+00       0.000000000000e+00
     -7.146010701928e-01       1.342185038168e+00       0.000000000000e+00
     -6.276983063261e-01       1.382821830496e+00       0.000000000000e+00
     -5.393011131242e-01       1.416573484003e+00       0.000000000000e+00
     -4.498231867015e-01       1.443472117446e+00       0.000000000000e+00
     -3.596722408419e-01       1.463606264219e+00       0.000000000000e+00
[...]
POINT_DATA 1404
VECTORS DSPL double
     -6.717063530811e-02       0.000000000000e+00       0.000000000000e+00
     -6.706384249556e-02      -1.240207977393e-03       0.000000000000e+00
     -6.673323185078e-02      -2.505020627495e-03       0.000000000000e+00
     -6.616598855340e-02      -3.789512176473e-03       0.000000000000e+00
     -6.535056213863e-02      -5.088092824671e-03       0.000000000000e+00
     -6.427737421618e-02      -6.394515915096e-03       0.000000000000e+00
     -6.293916147586e-02      -7.701834552515e-03       0.000000000000e+00
     -6.133138191922e-02      -9.002439588997e-03       0.000000000000e+00
     -5.945255230574e-02      -1.028811408699e-02       0.000000000000e+00
     -5.730454209860e-02      -1.155012455662e-02       0.000000000000e+00
     -5.489276811929e-02      -1.277935506214e-02       0.000000000000e+00
     -5.222633785553e-02      -1.396643835127e-02       0.000000000000e+00
     -4.931799823391e-02      -1.510202738642e-02       0.000000000000e+00
     -4.777808661309e-02      -1.564763804833e-02       0.000000000000e+00
     -4.618405298935e-02      -1.617692448637e-02       0.000000000000e+00
     -4.284410667839e-02      -1.718230296215e-02       0.000000000000e+00
     -3.932073565748e-02      -1.811018293279e-02       0.000000000000e+00
     -3.563883427699e-02      -1.895332383114e-02       0.000000000000e+00
     -3.182534429410e-02      -1.970564559530e-02       0.000000000000e+00
     -2.790847820769e-02      -2.036238793506e-02       0.000000000000e+00
     -2.391712614772e-02      -2.092021955687e-02       0.000000000000e+00
     -1.988037468802e-02      -2.137741878704e-02       0.000000000000e+00
     -1.582667943124e-02      -2.173370830813e-02       0.000000000000e+00
     -1.178462061673e-02      -2.199111526744e-02       0.000000000000e+00
     -7.780031682194e-03      -2.215271090698e-02       0.000000000000e+00
     -3.844553342379e-03      -2.222623128173e-02       0.000000000000e+00
     -1.971161984328e-16      -2.224261012157e-02       0.000000000000e+00
     -6.793185077045e-02       0.000000000000e+00       0.000000000000e+00
     -6.780127167200e-02      -7.223222535390e-04       0.000000000000e+00
     -6.737554734132e-02      -1.458553314109e-03       0.000000000000e+00
     -6.663975523150e-02      -2.225568503944e-03       0.000000000000e+00
     -6.558323225712e-02      -3.040826740793e-03       0.000000000000e+00
     -6.420004622688e-02      -3.921188286477e-03       0.000000000000e+00
     -6.248937853684e-02      -4.881586185792e-03       0.000000000000e+00
     -6.045567818104e-02      -5.933653260567e-03       0.000000000000e+00
     -5.810858526101e-02      -7.084444756962e-03       0.000000000000e+00
     -5.546263421222e-02      -8.335401841277e-03       0.000000000000e+00
     -5.253683997126e-02      -9.681695394600e-03       0.000000000000e+00
     -4.935414028355e-02      -1.111210707589e-02       0.000000000000e+00
     -4.594121878219e-02      -1.260921066378e-02       0.000000000000e+00
     -4.415749746238e-02      -1.337610647598e-02       0.000000000000e+00
     -4.233635600990e-02      -1.414736399075e-02       0.000000000000e+00
     -3.863076101491e-02      -1.567919749999e-02       0.000000000000e+00
     -3.487719128005e-02      -1.717530477486e-02       0.000000000000e+00
     -3.111621803809e-02      -1.860775046103e-02       0.000000000000e+00
     -2.738155216871e-02      -1.994828348696e-02       0.000000000000e+00
     -2.369909957326e-02      -2.116949444350e-02       0.000000000000e+00
     -2.008644555184e-02      -2.224646705953e-02       0.000000000000e+00
     -1.655320704057e-02      -2.315814970641e-02       0.000000000000e+00
     -1.310179710246e-02      -2.388904014801e-02       0.000000000000e+00
     -9.729235520934e-03      -2.442845975884e-02       0.000000000000e+00
     -6.427344438810e-03      -2.477808298993e-02       0.000000000000e+00
     -3.187765733441e-03      -2.492662777073e-02       0.000000000000e+00
     -2.254294636643e-16      -2.494624314838e-02       0.000000000000e+00
     -6.833586213734e-02       0.000000000000e+00       0.000000000000e+00
     -6.818567056690e-02      -4.571703203242e-04       0.000000000000e+00
     -6.769709674263e-02      -9.287236145347e-04       0.000000000000e+00
     -6.685788172631e-02      -1.439456072130e-03       0.000000000000e+00
     -6.566010941205e-02      -2.015212448855e-03       0.000000000000e+00
     -6.410084903950e-02      -2.681683579466e-03       0.000000000000e+00
     -6.218267507053e-02      -3.463073301086e-03       0.000000000000e+00
     -5.991411068001e-02      -4.380590838653e-03       0.000000000000e+00
     -5.730992974155e-02      -5.450824276696e-03       0.000000000000e+00
     -5.439125009413e-02      -6.684093440532e-03       0.000000000000e+00
     -5.118544220864e-02      -8.082882012043e-03       0.000000000000e+00
     -4.772558471481e-02      -9.640682764633e-03       0.000000000000e+00
     -4.405036527120e-02      -1.134079351900e-02       0.000000000000e+00
     -4.214488684292e-02      -1.223658888575e-02       0.000000000000e+00
     -4.021577219195e-02      -1.315084791628e-02       0.000000000000e+00
     -3.635589180810e-02      -1.499415137829e-02       0.000000000000e+00
     -3.253356587086e-02      -1.682259359910e-02       0.000000000000e+00
     -2.878871239750e-02      -1.859247327188e-02       0.000000000000e+00
     -2.514915242142e-02      -2.026180361417e-02       0.000000000000e+00
     -2.163130193783e-02      -2.179169915876e-02       0.000000000000e+00
     -1.824093190199e-02      -2.314828679854e-02       0.000000000000e+00
     -1.497473067284e-02      -2.430381789001e-02       0.000000000000e+00
     -1.182208412296e-02      -2.523809149468e-02       0.000000000000e+00
     -8.767363927197e-03      -2.593669368288e-02       0.000000000000e+00
     -5.791316569947e-03      -2.639942851228e-02       0.000000000000e+00
     -2.875650195855e-03      -2.660662285591e-02       0.000000000000e+00
     -2.256295247764e-16      -2.664002854613e-02       0.000000000000e+00
     -6.869725039218e-02       0.000000000000e+00       0.000000000000e+00
     -6.853493750306e-02      -3.240965103387e-04       0.000000000000e+00
     -6.799898512466e-02      -6.675824448422e-04       0.000000000000e+00
     -6.708298576338e-02      -1.059258139072e-03       0.000000000000e+00
     -6.578497562819e-02      -1.528426614920e-03       0.000000000000e+00
     -6.410777264176e-02      -2.103892873397e-03       0.000000000000e+00
     -6.205937020442e-02      -2.812833829898e-03       0.000000000000e+00
     -5.965334687432e-02      -3.679502504703e-03       0.000000000000e+00
     -5.690925911426e-02      -4.723750184038e-03       0.000000000000e+00
     -5.385291922823e-02      -5.959393664527e-03       0.000000000000e+00
     -5.051654127241e-02      -7.392436709255e-03       0.000000000000e+00
     -4.693835808154e-02      -9.019481168405e-03       0.000000000000e+00
     -4.316266580280e-02      -1.082570797613e-02       0.000000000000e+00
     -4.121532103572e-02      -1.178848506175e-02       0.000000000000e+00
     -3.925302738683e-02      -1.277720249535e-02       0.000000000000e+00
     -3.535887730537e-02      -1.478327473638e-02       0.000000000000e+00
     -3.154211303691e-02      -1.678660098525e-02       0.000000000000e+00
     -2.783725203463e-02      -1.873626133021e-02       0.000000000000e+00
     -2.426552317889e-02      -2.058434187046e-02       0.000000000000e+00
     -2.083664900044e-02      -2.228704671380e-02       0.000000000000e+00
     -1.755024480423e-02      -2.380631887558e-02       0.000000000000e+00
     -1.439773000413e-02      -2.511052724245e-02       0.000000000000e+00
     -1.136416175009e-02      -2.617553750493e-02       0.000000000000e+00
     -8.430325006654e-03      -2.698257452461e-02       0.000000000000e+00
     -5.573811308243e-03      -2.752662532468e-02       0.000000000000e+00
     -2.772142532903e-03      -2.778266421165e-02       0.000000000000e+00
     -2.323410694375e-16      -2.783164077993e-02       0.000000000000e+00
     -6.914329361224e-02       0.000000000000e+00       0.000000000000e+00
     -6.897399062884e-02      -2.681731219034e-04       0.000000000000e+00
     -6.839777589341e-02      -5.628324936884e-04       0.000000000000e+00
     -6.741691239008e-02      -9.155824912117e-04       0.000000000000e+00
     -6.603825999758e-02      -1.357280671447e-03       0.000000000000e+00
     -6.427311403084e-02      -1.917129863232e-03       0.000000000000e+00
     -6.213715082771e-02      -2.621794163674e-03       0.000000000000e+00
     -5.965050393651e-02      -3.494438563068e-03       0.000000000000e+00
     -5.683793423714e-02      -4.553644833685e-03       0.000000000000e+00
     -5.372901041922e-02      -5.812176017430e-03       0.000000000000e+00
     -5.035826622431e-02      -7.275528669437e-03       0.000000000000e+00
     -4.676494094559e-02      -8.940546059589e-03       0.000000000000e+00
     -4.299316431363e-02      -1.079338288837e-02       0.000000000000e+00
     -4.105459322122e-02      -1.178314628980e-02       0.000000000000e+00
     -3.910513672320e-02      -1.280135005090e-02       0.000000000000e+00
     -3.524510585207e-02      -1.487297462109e-02       0.000000000000e+00
     -3.146841548332e-02      -1.695025077599e-02       0.000000000000e+00
     -2.780374795689e-02      -1.898186637082e-02       0.000000000000e+00
     -2.426789129787e-02      -2.091930631785e-02       0.000000000000e+00
     -2.086770615176e-02      -2.271752058519e-02       0.000000000000e+00
     -1.760143540499e-02      -2.433617999055e-02       0.000000000000e+00
     -1.446028371667e-02      -2.574013971201e-02       0.000000000000e+00
     -1.142977201432e-02      -2.690045930589e-02       0.000000000000e+00
     -8.491312470029e-03      -2.779245131588e-02       0.000000000000e+00
     -5.622626874671e-03      -2.840450897053e-02       0.000000000000e+00
     -2.801057156453e-03      -2.870506720305e-02       0.000000000000e+00
     -2.042658815324e-16      -2.876958807775e-02       0.000000000000e+00
     -6.972531303568e-02       0.000000000000e+00       0.000000000000e+00
     -6.955149694029e-02      -2.609484445034e-04       0.000000000000e+00
     -6.893765934515e-02      -5.562058300822e-04       0.000000000000e+00
     -6.789722980251e-02      -9.201479267248e-04       0.000000000000e+00
     -6.644841653614e-02      -1.384369811493e-03       0.000000000000e+00
     -6.461321828227e-02      -1.976929154840e-03       0.000000000000e+00
     -6.241667727250e-02      -2.721770994923e-03       0.000000000000e+00
     -5.988640529138e-02      -3.638245458711e-03       0.000000000000e+00
     -5.705237181062e-02      -4.740611664655e-03       0.000000000000e+00
     -5.394687644866e-02      -6.037456954417e-03       0.000000000000e+00
     -5.060465932984e-02      -7.530915131783e-03       0.000000000000e+00
     -4.706281750176e-02      -9.215870492013e-03       0.000000000000e+00
     -4.336118656104e-02      -1.107842258728e-02       0.000000000000e+00
     -4.146297309845e-02      -1.206972874032e-02       0.000000000000e+00
     -3.955434537683e-02      -1.308863763966e-02       0.000000000000e+00
     -3.576724079077e-02      -1.516397193763e-02       0.000000000000e+00
     -3.204602611524e-02      -1.725172111010e-02       0.000000000000e+00
     -2.841435971512e-02      -1.930470336205e-02       0.000000000000e+00
     -2.488673013196e-02      -2.127722192989e-02       0.000000000000e+00
     -2.147000424538e-02      -2.312524645902e-02       0.000000000000e+00
     -1.816422022871e-02      -2.480727601782e-02       0.000000000000e+00
     -1.496348387309e-02      -2.628469510509e-02       0.000000000000e+00
     -1.185659971640e-02      -2.752290161806e-02       0.000000000000e+00
     -8.828014197697e-03      -2.848976704167e-02       0.000000000000e+00
     -5.857582209774e-03      -2.916502387641e-02       0.000000000000e+00
     -2.923980009747e-03      -2.950766078061e-02       0.000000000000e+00
     -1.893898002807e-16      -2.958666658435e-02       0.000000000000e+00
     -7.045698219360e-02       0.000000000000e+00       0.000000000000e+00
     -7.027877934191e-02      -2.871757375528e-04       0.000000000000e+00
     -6.962761638064e-02      -6.164962016267e-04       0.000000000000e+00
     -6.853030042785e-02      -1.025438015331e-03       0.000000000000e+00
     -6.701849825776e-02      -1.545861174660e-03       0.000000000000e+00
     -6.512652144904e-02      -2.203538652055e-03       0.000000000000e+00
     -6.288966354283e-02      -3.018091500738e-03       0.000000000000e+00
     -6.034310003264e-02      -4.003196377653e-03       0.000000000000e+00
     -5.752132740072e-02      -5.166877050891e-03       0.000000000000e+00
     -5.445803422259e-02      -6.511745515631e-03       0.000000000000e+00
     -5.118630366091e-02      -8.035031004099e-03       0.000000000000e+00
     -4.773886376561e-02      -9.728501708208e-03       0.000000000000e+00
     -4.414877645382e-02      -1.157760531162e-02       0.000000000000e+00
     -4.231029396267e-02      -1.255446437539e-02       0.000000000000e+00
     -4.045928897552e-02      -1.355604947061e-02       0.000000000000e+00
     -3.676689936656e-02      -1.559671949036e-02       0.000000000000e+00
     -3.310748664377e-02      -1.765574485776e-02       0.000000000000e+00
     -2.950059135752e-02      -1.969263575634e-02       0.000000000000e+00
     -2.595977955532e-02      -2.166658635230e-02       0.000000000000e+00
     -2.249354040650e-02      -2.353614465649e-02       0.000000000000e+00
     -1.910543688649e-02      -2.525960198532e-02       0.000000000000e+00
     -1.579421388232e-02      -2.679517443213e-02       0.000000000000e+00
     -1.255361017632e-02      -2.810219819009e-02       0.000000000000e+00
     -9.372573599654e-03      -2.913994865263e-02       0.000000000000e+00
     -6.234198292186e-03      -2.987782678493e-02       0.000000000000e+00
     -3.119207983861e-03      -3.026279655747e-02       0.000000000000e+00
     -2.005435574894e-16      -3.035620722416e-02       0.000000000000e+00
     -7.133521249238e-02       0.000000000000e+00       0.000000000000e+00
     -7.115122924420e-02      -3.380184826576e-04       0.000000000000e+00
     -7.046198821408e-02      -7.256884509718e-04       0.000000000000e+00
     -6.930970535788e-02      -1.203996822591e-03       0.000000000000e+00
     -6.774124347624e-02      -1.804629144275e-03       0.000000000000e+00
     -6.580424751627e-02      -2.550049685676e-03       0.000000000000e+00
     -6.354441211662e-02      -3.454254506977e-03       0.000000000000e+00
     -6.100381965148e-02      -4.523954635788e-03       0.000000000000e+00
     -5.822024414744e-02      -5.759849631053e-03       0.000000000000e+00
     -5.522719753131e-02      -7.157778892748e-03       0.000000000000e+00
     -5.205449401467e-02      -8.709554573997e-03       0.000000000000e+00
     -4.872904315872e-02      -1.040353159447e-02       0.000000000000e+00
     -4.527596321096e-02      -1.222435211830e-02       0.000000000000e+00
     -4.350888116219e-02      -1.317676483331e-02       0.000000000000e+00
     -4.172540099496e-02      -1.414990731206e-02       0.000000000000e+00
     -3.813965845339e-02      -1.613265342321e-02       0.000000000000e+00
     -3.454404553936e-02      -1.813926301668e-02       0.000000000000e+00
     -3.095466952594e-02      -2.013710163864e-02       0.000000000000e+00
     -2.738480286243e-02      -2.209141423505e-02       0.000000000000e+00
     -2.384516654416e-02      -2.396445865378e-02       0.000000000000e+00
     -2.034351685743e-02      -2.571529257940e-02       0.000000000000e+00
     -1.688402107596e-02      -2.729959095423e-02       0.000000000000e+00
     -1.346625349887e-02      -2.867069702827e-02       0.000000000000e+00
     -1.008456814299e-02      -2.977862830711e-02       0.000000000000e+00
     -6.726085070748e-03      -3.058105697657e-02       0.000000000000e+00
     -3.373947466281e-03      -3.101063395817e-02       0.000000000000e+00
     -2.006392229578e-16      -3.111932047936e-02       0.000000000000e+00
     -7.234948288385e-02       0.000000000000e+00       0.000000000000e+00
     -7.215744140257e-02      -4.081000217620e-04       0.000000000000e+00
     -7.142916113356e-02      -8.728617285631e-04       0.000000000000e+00
     -7.022409197093e-02      -1.439180104130e-03       0.000000000000e+00
     -6.860567477103e-02      -2.138050699209e-03       0.000000000000e+00
     -6.663536093602e-02      -2.987604394964e-03       0.000000000000e+00
     -6.436875233435e-02      -3.995093939530e-03       0.000000000000e+00
     -6.185359488160e-02      -5.159377607799e-03       0.000000000000e+00
     -5.912931163002e-02      -6.473340145705e-03       0.000000000000e+00
     -5.622760796420e-02      -7.925957606655e-03       0.000000000000e+00
     -5.317371573715e-02      -9.503811098932e-03       0.000000000000e+00
     -4.998792086314e-02      -1.119211283883e-02       0.000000000000e+00
     -4.668717992380e-02      -1.297484617831e-02       0.000000000000e+00
     -4.499835522170e-02      -1.389652906948e-02       0.000000000000e+00
     -4.328808211486e-02      -1.483443165444e-02       0.000000000000e+00
     -3.981517716836e-02      -1.674547367382e-02       0.000000000000e+00
     -3.628329714633e-02      -1.868570712218e-02       0.000000000000e+00
     -3.270556487743e-02      -2.063060561337e-02       0.000000000000e+00
     -2.909505290004e-02      -2.255201101817e-02       0.000000000000e+00
     -2.546463286327e-02      -2.441671808695e-02       0.000000000000e+00
     -2.182619048922e-02      -2.618552613628e-02       0.000000000000e+00
     -1.818943397758e-02      -2.781244253491e-02       0.000000000000e+00
     -1.456015217076e-02      -2.924527811518e-02       0.000000000000e+00
     -1.093867811346e-02      -3.042454170441e-02       0.000000000000e+00
     -7.316769657284e-03      -3.129503093604e-02       0.000000000000e+00
     -3.680193229652e-03      -3.177321186386e-02       0.000000000000e+00
     -2.009751868338e-16      -3.189902739320e-02       0.000000000000e+00
     -7.348655790681e-02       0.000000000000e+00       0.000000000000e+00
     -7.328383466706e-02      -4.939383685558e-04       0.000000000000e+00
     -7.251590777399e-02      -1.051019217981e-03       0.000000000000e+00
     -7.126108528730e-02      -1.720374223742e-03       0.000000000000e+00
     -6.960040342508e-02      -2.531676206831e-03       0.000000000000e+00
     -6.760907556692e-02      -3.497661943794e-03       0.000000000000e+00
     -6.535156742353e-02      -4.617855751696e-03       0.000000000000e+00
     -6.287961741857e-02      -5.882687423569e-03       0.000000000000e+00
     -6.023247681615e-02      -7.277168184678e-03       0.000000000000e+00
     -5.743849951916e-02      -8.783786352498e-03       0.000000000000e+00
     -5.451736049085e-02      -1.038449557681e-02       0.000000000000e+00
     -5.148244372701e-02      -1.206194493857e-02       0.000000000000e+00
     -4.834297650031e-02      -1.379975956602e-02       0.000000000000e+00
     -4.673629253849e-02      -1.468665479973e-02       0.000000000000e+00
     -4.510234741778e-02      -1.558512083879e-02       0.000000000000e+00
     -4.174511530197e-02      -1.741640914075e-02       0.000000000000e+00
     -3.827589572428e-02      -1.928224777502e-02       0.000000000000e+00
     -3.470511308396e-02      -2.116593174660e-02       0.000000000000e+00
     -3.104542130599e-02      -2.304604596742e-02       0.000000000000e+00
     -2.731134713479e-02      -2.489451240837e-02       0.000000000000e+00
     -2.351837141002e-02      -2.667480161416e-02       0.000000000000e+00
     -1.968139810095e-02      -2.834027027917e-02       0.000000000000e+00
     -1.581242737611e-02      -2.983393421973e-02       0.000000000000e+00