# vtk DataFile Version 3.0
plate_with_hole_C0_coarse_02.vtk
ASCII
DATASET UNSTRUCTURED_GRID
FIELD FieldData 2
TIME 1 1 double
1.000000e+00
CYCLE 1 1 int
2
POINTS 420 double
     -1.000000000000e+00       0.000000000000e+00       0.000000000000e+00
     -9.938260386145e-01       1.109495604852e-01       0.000000000000e+00
     -9.743774847164e-01       2.249189126723e-01       0.000000000000e+00
     -9.405651881600e-01       3.396132017775e-01       0.000000000000e+00
     -8.918273451558e-01       4.523759348511e-01       0.000000000000e+00
     -8.282595980456e-01       5.603445709966e-01       0.000000000000e+00
     -7.506872886957e-01       6.606576985025e-01       0.000000000000e+00
     -7.071067811865e-01       7.071067811865e-01       0.000000000000e+00
     -6.606576985025e-01       7.506872886957e-01       0.000000000000e+00
     -5.603445709966e-01       8.282595980456e-01       0.000000000000e+00
     -4.523759348511e-01       8.918273451558e-01       0.000000000000e+00
     -3.396132017775e-01       9.405651881600e-01       0.000000000000e+00
     -2.249189126723e-01       9.743774847164e-01       0.000000000000e+00
     -1.109495604852e-01       9.938260386145e-01       0.000000000000e+00
      0.000000000000e+00       1.000000000000e+00       0.000000000000e+00
     -1.230769230769e+00       0.000000000000e+00       0.000000000000e+00
     -1.230972274642e+00       1.353150158346e-01       0.000000000000e+00
     -1.212654985747e+00       2.744117522753e-01       0.000000000000e+00
     -1.174373023406e+00       4.149533435887e-01       0.000000000000e+00
     -1.115301965098e+00       5.542675987351e-01       0.000000000000e+00
     -1.035375574487e+00       6.894810683914e-01       0.000000000000e+00
     -9.353669588135e-01       8.176924546372e-01       0.000000000000e+00
     -8.783057633002e-01       8.783057633002e-01       0.000000000000e+00
     -8.176924546372e-01       9.353669588135e-01       0.000000000000e+00
     -6.894810683914e-01       1.035375574487e+00       0.000000000000e+00
     -5.542675987351e-01       1.115301965098e+00       0.000000000000e+00
     -4.149533435887e-01       1.174373023406e+00       0.000000000000e+00
     -2.744117522753e-01       1.212654985747e+00       0.000000000000e+00
     -1.353150158346e-01       1.230972274642e+00       0.000000000000e+00
      0.000000000000e+00       1.230769230769e+00       0.000000000000e+00
     -1.461538461538e+00       0.000000000000e+00       0.000000000000e+00
     -1.465781160041e+00       1.689052362482e-01       0.000000000000e+00
     -1.447454360725e+00       3.398548270215e-01       0.000000000000e+00
     -1.405037410494e+00       5.102629759727e-01       0.000000000000e+00
     -1.337648271163e+00       6.773079093747e-01       0.000000000000e+00
     -1.245162504520e+00       8.380613613717e-01       0.000000000000e+00
     -1.128283134971e+00       9.896419772190e-01       0.000000000000e+00
     -1.061144912941e+00       1.061144912941e+00       0.000000000000e+00
     -9.896419772190e-01       1.128283134971e+00       0.000000000000e+00
     -8.380613613717e-01       1.245162504520e+00       0.000000000000e+00
     -6.773079093747e-01       1.337648271163e+00       0.000000000000e+00
     -5.102629759727e-01       1.405037410494e+00       0.000000000000e+00
     -3.398548270215e-01       1.447454360725e+00       0.000000000000e+00
     -1.689052362482e-01       1.465781160041e+00       0.000000000000e+00
      0.000000000000e+00       1.461538461538e+00       0.000000000000e+00
     -1.692307692308e+00       0.000000000000e+00       0.000000000000e+00
     -1.698648886626e+00       2.116104661677e-01       0.000000000000e+00
     -1.679554731257e+00       4.209136205287e-01       0.000000000000e+00
     -1.633607956406e+00       6.250136271663e-01       0.000000000000e+00
     -1.559991889446e+00       8.209220562813e-01       0.000000000000e+00
     -1.458580625462e+00       1.005683150062e+00       0.000000000000e+00
     -1.329991188073e+00       1.176508696558e+00       0.000000000000e+00
     -1.255903036725e+00       1.255903036725e+00       0.000000000000e+00
     -1.176508696558e+00       1.329991188073e+00       0.000000000000e+00
     -1.005683150062e+00       1.458580625462e+00       0.000000000000e+00
     -8.209220562813e-01       1.559991889446e+00       0.000000000000e+00
     -6.250136271663e-01       1.633607956406e+00       0.000000000000e+00
     -4.209136205287e-01       1.679554731257e+00       0.000000000000e+00
     -2.116104661677e-01       1.698648886626e+00       0.000000000000e+00
      0.000000000000e+00       1.692307692308e+00       0.000000000000e+00
     -1.923076923077e+00       0.000000000000e+00       0.000000000000e+00
     -1.929957040999e+00       2.633508437863e-01       0.000000000000e+00
     -1.909687939932e+00       5.173551641804e-01       0.000000000000e+00
     -1.861058183552e+00       7.588580154422e-01       0.000000000000e+00
     -1.783380629901e+00       9.847688401963e-01       0.000000000000e+00
     -1.676554208392e+00       1.192176049881e+00       0.000000000000e+00
     -1.541098930255e+00       1.378460610998e+00       0.000000000000e+00
     -1.462969372063e+00       1.462969372063e+00       0.000000000000e+00
     -1.378460610998e+00       1.541098930255e+00       0.000000000000e+00
     -1.192176049881e+00       1.676554208392e+00       0.000000000000e+00
     -9.847688401963e-01       1.783380629901e+00       0.000000000000e+00
     -7.588580154422e-01       1.861058183552e+00       0.000000000000e+00
     -5.173551641804e-01       1.909687939932e+00       0.000000000000e+00
     -2.633508437863e-01       1.929957040999e+00       0.000000000000e+00
      0.000000000000e+00       1.923076923077e+00       0.000000000000e+00
     -2.153846153846e+00       0.000000000000e+00       0.000000000000e+00
     -2.160074896406e+00       3.240752167487e-01       0.000000000000e+00
     -2.138547657761e+00       6.290409179927e-01       0.000000000000e+00
     -2.088303118123e+00       9.116134143324e-01       0.000000000000e+00
     -2.008807059168e+00       1.168716374946e+00       0.000000000000e+00
     -1.899990833888e+00       1.397577556222e+00       0.000000000000e+00
     -1.762272677494e+00       1.595818500872e+00       0.000000000000e+00
     -1.682840091320e+00       1.682840091320e+00       0.000000000000e+00
     -1.595818500872e+00       1.762272677494e+00       0.000000000000e+00
     -1.397577556222e+00       1.899990833888e+00       0.000000000000e+00
     -1.168716374946e+00       2.008807059168e+00       0.000000000000e+00
     -9.116134143324e-01       2.088303118123e+00       0.000000000000e+00
     -6.290409179927e-01       2.138547657761e+00       0.000000000000e+00
     -3.240752167487e-01       2.160074896406e+00       0.000000000000e+00
      0.000000000000e+00       2.153846153846e+00       0.000000000000e+00
     -2.384615384615e+00       0.000000000000e+00       0.000000000000e+00
     -2.389361544060e+00       3.937602078238e-01       0.000000000000e+00
     -2.366797458939e+00       7.559213528164e-01       0.000000000000e+00
     -2.316214426067e+00       1.083249416235e+00       0.000000000000e+00
     -2.237227728673e+00       1.372824833501e+00       0.000000000000e+00
     -2.129798262632e+00       1.622116805106e+00       0.000000000000e+00
     -1.994244236426e+00       1.829048644676e+00       0.000000000000e+00
     -1.916118088806e+00       1.916118088806e+00       0.000000000000e+00
     -1.829048644676e+00       1.994244236426e+00       0.000000000000e+00
     -1.622116805106e+00       2.129798262632e+00       0.000000000000e+00
     -1.372824833501e+00       2.237227728673e+00       0.000000000000e+00
     -1.083249416235e+00       2.316214426067e+00       0.000000000000e+00
     -7.559213528164e-01       2.366797458939e+00       0.000000000000e+00
     -3.937602078238e-01       2.389361544060e+00       0.000000000000e+00
      0.000000000000e+00       2.384615384615e+00       0.000000000000e+00
     -2.615384615385e+00       0.000000000000e+00       0.000000000000e+00
     -2.618167891446e+00       4.724095125473e-01       0.000000000000e+00
     -2.595078081468e+00       8.980320257178e-01       0.000000000000e+00
     -2.545633701934e+00       1.273879402926e+00       0.000000000000e+00
     -2.469580008013e+00       1.597334977925e+00       0.000000000000e+00
     -2.366899770307e+00       1.866204676678e+00       0.000000000000e+00
     -2.237818966961e+00       2.078760114973e+00       0.000000000000e+00
     -2.163515652074e+00       2.163515652074e+00       0.000000000000e+00
     -2.078760114973e+00       2.237818966961e+00       0.000000000000e+00
     -1.866204676678e+00       2.366899770307e+00       0.000000000000e+00
     -1.597334977925e+00       2.469580008013e+00       0.000000000000e+00
     -1.273879402926e+00       2.545633701934e+00       0.000000000000e+00
     -8.980320257178e-01       2.595078081468e+00       0.000000000000e+00
     -4.724095125473e-01       2.618167891446e+00       0.000000000000e+00
      0.000000000000e+00       2.615384615385e+00       0.000000000000e+00
     -2.846153846154e+00       0.000000000000e+00       0.000000000000e+00
     -2.846838552324e+00       5.600534146954e-01       0.000000000000e+00
     -2.824014057041e+00       1.055490992222e+00       0.000000000000e+00
     -2.777384396749e+00       1.483755223443e+00       0.000000000000e+00
     -2.706797269815e+00       1.842661593062e+00       0.000000000000e+00
     -2.612248639298e+00       2.130429261228e+00       0.000000000000e+00
     -2.493885106133e+00       2.345706074216e+00       0.000000000000e+00
     -2.425859812883e+00       2.425859812883e+00       0.000000000000e+00
     -2.345706074216e+00       2.493885106133e+00       0.000000000000e+00
     -2.130429261228e+00       2.612248639298e+00       0.000000000000e+00
     -1.842661593062e+00       2.706797269815e+00       0.000000000000e+00
[...]
POINT_DATA 420
VECTORS DSPL double
     -6.736275243660e-02       0.000000000000e+00       0.000000000000e+00
     -6.696190539007e-02      -2.467042633779e-03       0.000000000000e+00
     -6.569004936568e-02      -5.011745832324e-03       0.000000000000e+00
     -6.347344864686e-02      -7.594184503685e-03       0.000000000000e+00
     -6.026611312963e-02      -1.016447507266e-02       0.000000000000e+00
     -5.606277425502e-02      -1.266350470071e-02       0.000000000000e+00
     -5.090434974992e-02      -1.502634454864e-02       0.000000000000e+00
     -4.799330728134e-02      -1.613540747027e-02       0.000000000000e+00
     -4.488058992058e-02      -1.718459145107e-02       0.000000000000e+00
     -3.812954717949e-02      -1.907559642866e-02       0.000000000000e+00
     -3.082731429413e-02      -2.065083455735e-02       0.000000000000e+00
     -2.316921243586e-02      -2.187564481848e-02       0.000000000000e+00
     -1.535653967785e-02      -2.273432405184e-02       0.000000000000e+00
     -7.578529092287e-03      -2.323175380307e-02       0.000000000000e+00
      4.380202771958e-17      -2.338598920662e-02       0.000000000000e+00
     -6.856331299353e-02       0.000000000000e+00       0.000000000000e+00
     -6.797831784513e-02      -9.512300706433e-04       0.000000000000e+00
     -6.610492751486e-02      -2.041746524680e-03       0.000000000000e+00
     -6.289954426607e-02      -3.456931402583e-03       0.000000000000e+00
     -5.839527430337e-02      -5.360697054186e-03       0.000000000000e+00
     -5.270671066892e-02      -7.854748412058e-03       0.000000000000e+00
     -4.603151491399e-02      -1.093781816831e-02       0.000000000000e+00
     -4.240212399714e-02      -1.266791001912e-02       0.000000000000e+00
     -3.868041818729e-02      -1.446596676422e-02       0.000000000000e+00
     -3.129583578060e-02      -1.804756041684e-02       0.000000000000e+00
     -2.421320175506e-02      -2.137283975833e-02       0.000000000000e+00
     -1.757996761499e-02      -2.416712825204e-02       0.000000000000e+00
     -1.140251486672e-02      -2.622180905384e-02       0.000000000000e+00
     -5.589224959993e-03      -2.741755980365e-02       0.000000000000e+00
      5.719642863818e-17      -2.773455384719e-02       0.000000000000e+00
     -6.930173477885e-02       0.000000000000e+00       0.000000000000e+00
     -6.861863623721e-02      -5.833378404255e-04       0.000000000000e+00
     -6.645201278150e-02      -1.367793550477e-03       0.000000000000e+00
     -6.285087038334e-02      -2.567263320301e-03       0.000000000000e+00
     -5.792570658456e-02      -4.367030707603e-03       0.000000000000e+00
     -5.185298023178e-02      -6.895759383526e-03       0.000000000000e+00
     -4.488525014094e-02      -1.018513110747e-02       0.000000000000e+00
     -4.115916175882e-02      -1.209112286364e-02       0.000000000000e+00
     -3.739172095626e-02      -1.410633955617e-02       0.000000000000e+00
     -3.007062244151e-02      -1.818364012914e-02       0.000000000000e+00
     -2.319325613578e-02      -2.203370538495e-02       0.000000000000e+00
     -1.682930384852e-02      -2.532947685263e-02       0.000000000000e+00
     -1.093019993911e-02      -2.781722491835e-02       0.000000000000e+00
     -5.374151372942e-03      -2.932350036765e-02       0.000000000000e+00
      4.702573737460e-17      -2.976081714216e-02       0.000000000000e+00
     -7.050599536696e-02       0.000000000000e+00       0.000000000000e+00
     -6.974837141943e-02      -5.992518365767e-04       0.000000000000e+00
     -6.734612018626e-02      -1.470094538568e-03       0.000000000000e+00
     -6.350660184985e-02      -2.826916356406e-03       0.000000000000e+00
     -5.846410844321e-02      -4.808302033207e-03       0.000000000000e+00
     -5.245738086839e-02      -7.477449627906e-03       0.000000000000e+00
     -4.572945848706e-02      -1.081749491709e-02       0.000000000000e+00
     -4.216990082025e-02      -1.271204586722e-02       0.000000000000e+00
     -3.856673251517e-02      -1.470506122142e-02       0.000000000000e+00
     -3.146264152620e-02      -1.876908410141e-02       0.000000000000e+00
     -2.460875993040e-02      -2.269757371254e-02       0.000000000000e+00
     -1.807508088330e-02      -2.618826907251e-02       0.000000000000e+00
     -1.185591325250e-02      -2.894863098040e-02       0.000000000000e+00
     -5.877215106291e-03      -3.070827231928e-02       0.000000000000e+00
      5.162269751161e-17      -3.125187890346e-02       0.000000000000e+00
     -7.223893992054e-02       0.000000000000e+00       0.000000000000e+00
     -7.140043187014e-02      -8.108553583883e-04       0.000000000000e+00
     -6.879241294218e-02      -1.963728569081e-03       0.000000000000e+00
     -6.481951379121e-02      -3.654834482075e-03       0.000000000000e+00
     -5.984103074925e-02      -5.939959519306e-03       0.000000000000e+00
     -5.412662798055e-02      -8.785085898888e-03       0.000000000000e+00
     -4.786651536047e-02      -1.210637943529e-02       0.000000000000e+00
     -4.457619374813e-02      -1.391304089976e-02       0.000000000000e+00
     -4.121298774501e-02      -1.578877094430e-02       0.000000000000e+00
     -3.435952449265e-02      -1.963983395599e-02       0.000000000000e+00
     -2.741989175164e-02      -2.346531986805e-02       0.000000000000e+00
     -2.048515218240e-02      -2.702140753058e-02       0.000000000000e+00
     -1.361843273547e-02      -2.999453088091e-02       0.000000000000e+00
     -6.822244112055e-03      -3.200508080856e-02       0.000000000000e+00
      5.935838805132e-17      -3.266518280601e-02       0.000000000000e+00
     -7.443769159420e-02       0.000000000000e+00       0.000000000000e+00
     -7.350747945676e-02      -1.141339250400e-03       0.000000000000e+00
     -7.072675459597e-02      -2.690073968766e-03       0.000000000000e+00
     -6.671554754321e-02      -4.807578941685e-03       0.000000000000e+00
     -6.193299220194e-02      -7.443703214217e-03       0.000000000000e+00
     -5.663760257129e-02      -1.046327378568e-02       0.000000000000e+00
     -5.094210141141e-02      -1.372518522864e-02       0.000000000000e+00
     -4.795836821374e-02      -1.541107689863e-02       0.000000000000e+00
     -4.486001521722e-02      -1.713300340028e-02       0.000000000000e+00
     -3.825576836375e-02      -2.069885796158e-02       0.000000000000e+00
     -3.116617986612e-02      -2.435059065538e-02       0.000000000000e+00
     -2.369771526308e-02      -2.791739884381e-02       0.000000000000e+00
     -1.597758642229e-02      -3.108649547537e-02       0.000000000000e+00
     -8.093314750316e-03      -3.337008451697e-02       0.000000000000e+00
      5.405956683913e-17      -3.416825147233e-02       0.000000000000e+00
     -7.700782532376e-02       0.000000000000e+00       0.000000000000e+00
     -7.597974265091e-02      -1.559083807878e-03       0.000000000000e+00
     -7.307727455443e-02      -3.584520123645e-03       0.000000000000e+00
     -6.913180977801e-02      -6.182976511130e-03       0.000000000000e+00
     -6.465813076552e-02      -9.182549730023e-03       0.000000000000e+00
     -5.986186639054e-02      -1.235717448744e-02       0.000000000000e+00
     -5.477056625856e-02      -1.552821802234e-02       0.000000000000e+00
     -5.210442546488e-02      -1.707623241224e-02       0.000000000000e+00
     -4.927636251486e-02      -1.862901402809e-02       0.000000000000e+00
     -4.290968856200e-02      -2.188361107881e-02       0.000000000000e+00
     -3.563043971192e-02      -2.533167670289e-02       0.000000000000e+00
     -2.754464812613e-02      -2.888157465932e-02       0.000000000000e+00
     -1.882422942027e-02      -3.224508271353e-02       0.000000000000e+00
     -9.638260628852e-03      -3.483637112018e-02       0.000000000000e+00
      6.162915463369e-17      -3.580545509710e-02       0.000000000000e+00
     -7.986593717217e-02       0.000000000000e+00       0.000000000000e+00
     -7.874684066910e-02      -2.047369574841e-03       0.000000000000e+00
     -7.579693723104e-02      -4.615763101864e-03       0.000000000000e+00
     -7.203177035148e-02      -7.734174857724e-03       0.000000000000e+00
     -6.796674339932e-02      -1.109732984243e-02       0.000000000000e+00
     -6.372255448566e-02      -1.440340901361e-02       0.000000000000e+00
     -5.924921623102e-02      -1.745489409023e-02       0.000000000000e+00
     -5.690196765208e-02      -1.885134699623e-02       0.000000000000e+00
     -5.434314610466e-02      -2.022397630143e-02       0.000000000000e+00
     -4.819728924498e-02      -2.315096716070e-02       0.000000000000e+00
     -4.069427256053e-02      -2.637601658694e-02       0.000000000000e+00
     -3.192694343277e-02      -2.989071535369e-02       0.000000000000e+00
     -2.208946201429e-02      -3.345532243065e-02       0.000000000000e+00
     -1.142215168783e-02      -3.640047277419e-02       0.000000000000e+00
      5.944852924156e-17      -3.758220037780e-02       0.000000000000e+00
     -8.294373846107e-02       0.000000000000e+00       0.000000000000e+00
     -8.175849506109e-02      -2.597534144404e-03       0.000000000000e+00
     -7.886298278340e-02      -5.771712194649e-03       0.000000000000e+00
     -7.540255520532e-02      -9.447584598375e-03       0.000000000000e+00
     -7.183479756571e-02      -1.317598054078e-02       0.000000000000e+00
     -6.817865753148e-02      -1.659426559407e-02       0.000000000000e+00
     -6.432729690773e-02      -1.950049191203e-02       0.000000000000e+00
     -6.229954051035e-02      -2.073133179809e-02       0.000000000000e+00
     -6.000800499043e-02      -2.191071822947e-02       0.000000000000e+00
     -5.405996591791e-02      -2.448619912916e-02       0.000000000000e+00
     -4.629183843397e-02      -2.745998730300e-02       0.000000000000e+00
     -3.677733388268e-02      -3.091442644589e-02       0.000000000000e+00
     -2.571723713431e-02      -3.468595050003e-02       0.000000000000e+00
     -1.341241957268e-02      -3.804100342976e-02       0.000000000000e+00
      4.602075524811e-17      -3.948762583009e-02       0.000000000000e+00
     -8.618689475126e-02       0.000000000000e+00       0.000000000000e+00
     -8.498390575192e-02      -3.205833416442e-03       0.000000000000e+00
     -8.227556475096e-02      -7.054777896887e-03       0.000000000000e+00
     -7.925160362007e-02      -1.133566080204e-02       0.000000000000e+00
     -7.625850127522e-02      -1.544278829453e-02       0.000000000000e+00
     -7.321630711814e-02      -1.896564676521e-02       0.000000000000e+00
     -6.999284079432e-02      -2.170648539965e-02       0.000000000000e+00
     -6.828866259140e-02      -2.275804184052e-02       0.000000000000e+00
     -6.626627371722e-02      -2.372898102211e-02       0.000000000000e+00
     -6.049108260117e-02      -2.591534284990e-02       0.000000000000e+00
     -5.239795519938e-02      -2.858819228737e-02       0.000000000000e+00
     -4.204949198002e-02      -3.193364763700e-02       0.000000000000e+00
     -2.965208927732e-02      -3.590266334452e-02       0.000000000000e+00
     -1.556873993450e-02      -3.972783799099e-02       0.000000000000e+00
      3.749247915358e-17      -4.150397876957e-02       0.000000000000e+00
     -8.955130954996e-02       0.000000000000e+00       0.000000000000e+00
     -8.840975447493e-02      -3.873020909077e-03       0.000000000000e+00
     -8.605460708667e-02      -8.482272409227e-03       0.000000000000e+00
     -8.360162562773e-02      -1.343646275082e-02       0.000000000000e+00
     -8.125040435789e-02      -1.795632104595e-02       0.000000000000e+00
     -7.884847756432e-02      -2.159549724613e-02       0.000000000000e+00
     -7.627522511899e-02      -2.416610253425e-02       0.000000000000e+00
     -7.491481678363e-02      -2.502694439490e-02       0.000000000000e+00
     -7.317462463919e-02      -2.577278345157e-02       0.000000000000e+00
     -6.754251936576e-02      -2.751992040567e-02       0.000000000000e+00
     -5.903855990214e-02      -2.981220899359e-02       0.000000000000e+00
     -4.772607012779e-02      -3.295903880147e-02       0.000000000000e+00
     -3.383850194235e-02      -3.707972802144e-02       0.000000000000e+00
     -1.783562444173e-02      -4.142558771255e-02       0.000000000000e+00
      3.717516543194e-17      -4.360877555898e-02       0.000000000000e+00
     -9.299901720859e-02       0.000000000000e+00       0.000000000000e+00
     -9.203918613270e-02      -4.604969489232e-03       0.000000000000e+00
     -9.023607244307e-02      -1.008869501464e-02       0.000000000000e+00
     -8.848566241003e-02      -1.581452464744e-02       0.000000000000e+00
     -8.683780424905e-02      -2.080792751646e-02       0.000000000000e+00
     -8.511843610199e-02      -2.459990121792e-02       0.000000000000e+00
     -8.325684130163e-02      -2.701192350462e-02       0.000000000000e+00
     -8.227470937972e-02      -2.767948027727e-02       0.000000000000e+00
     -8.084311681013e-02      -2.818859124469e-02       0.000000000000e+00
     -7.534206268519e-02      -2.943724333797e-02       0.000000000000e+00
     -6.631264703095e-02      -3.124284081097e-02       0.000000000000e+00
     -5.384156017749e-02      -3.404895077142e-02       0.000000000000e+00
     -3.823154769622e-02      -3.821448301213e-02       0.000000000000e+00
     -2.013610978366e-02      -4.309829082318e-02       0.000000000000e+00
      3.789595815816e-17      -4.577234274473e-02       0.000000000000e+00
     -9.649415349539e-02       0.000000000000e+00       0.000000000000e+00
     -9.589108678207e-02      -5.413996587750e-03       0.000000000000e+00
     -9.486741688092e-02      -1.192838145438e-02       0.000000000000e+00
     -9.394047787855e-02      -1.856009820436e-02       0.000000000000e+00
     -9.306274604175e-02      -2.411284529851e-02       0.000000000000e+00
     -9.211541719283e-02      -2.812168119841e-02       0.000000000000e+00
     -9.108779120400e-02      -3.041396631214e-02       0.000000000000e+00
     -9.055933607638e-02      -3.088495220512e-02       0.000000000000e+00
     -8.948953188427e-02      -3.114309344765e-02       0.000000000000e+00
     -8.410552520530e-02      -3.183926064423e-02       0.000000000000e+00
     -7.441557214697e-02      -3.304135140103e-02       0.000000000000e+00
     -6.051831860068e-02      -3.532177136937e-02       0.000000000000e+00
     -4.282173571851e-02      -3.934490910337e-02       0.000000000000e+00
     -2.236710443100e-02      -4.471641139066e-02       0.000000000000e+00
      2.915506413837e-17      -4.795204757656e-02       0.000000000000e+00
     -1.000000000000e-01       0.000000000000e+00       0.000000000000e+00
     -1.000000000000e-01      -6.320878533645e-03       0.000000000000e+00
     -1.000000000000e-01      -1.407933584791e-02       0.000000000000e+00
     -1.000000000000e-01      -2.177650842185e-02       0.000000000000e+00
     -1.000000000000e-01      -2.798926819068e-02       0.000000000000e+00
     -1.000000000000e-01      -3.230401978987e-02       0.000000000000e+00
     -1.000000000000e-01      -3.451248047068e-02       0.000000000000e+00
     -9.997845202600e-02      -3.480270171488e-02       0.000000000000e+00
     -9.931329416809e-02      -3.480833123114e-02       0.000000000000e+00
     -9.409090509683e-02      -3.487889118744e-02       0.000000000000e+00
     -8.360994795236e-02      -3.536968529380e-02       0.000000000000e+00
     -6.798904925307e-02      -3.693681967423e-02       0.000000000000e+00
     -4.768432993039e-02      -4.056589980839e-02       0.000000000000e+00
     -2.440082684578e-02      -4.627291395989e-02       0.000000000000e+00
      1.144190521046e-18      -5.007688068295e-02       0.000000000000e+00
      4.380202771958e-17      -2.338598920662e-02       0.000000000000e+00
      7.578529092287e-03      -2.323175380307e-02       0.000000000000e+00
      1.535653967785e-02      -2.273432405184e-02       0.000000000000e+00
      2.316921243586e-02      -2.187564481848e-02       0.000000000000e+00
      3.082731429413e-02      -2.065083455735e-02       0.000000000000e+00
      3.812954717949e-02      -1.907559642866e-02       0.000000000000e+00
      4.488058992058e-02      -1.718459145107e-02       0.000000000000e+00
      4.799330728134e-02      -1.613540747027e-02       0.000000000000e+00
      5.090434974992e-02      -1.502634454864e-02       0.000000000000e+00
      5.606277425502e-02      -1.266350470071e-02       0.000000000000e+00
      6.026611312963e-02      -1.016447507266e-02       0.000000000000e+00
      6.347344864686e-02      -7.594184503685e-03       0.000000000000e+00
      6.569004936568e-02      -5.011745832324e-03       0.000000000000e+00
      6.696190539007e-02      -2.467042633779e-03       0.000000000000e+00
      6.736275243660e-02       0.000000000000e+00       0.000000000000e+00
      5.719642863818e-17      -2.773455384719e-02       0.000000000000e+00
      5.589224959993e-03      -2.741755980365e-02       0.000000000000e+00
      1.140251486672e-02      -2.622180905384e-02       0.000000000000e+00
      1.757996761499e-02      -2.416712825204e-02       0.000000000000e+00
      2.421320175506e-02      -2.137283975833e-02       0.000000000000e+00
      3.129583578060e-02      -1.804756041684e-02       0.000000000000e+00
      3.868041818729e-02      -1.446596676422e-02       0.000000000000e+00
      4.240212399714e-02      -1.266791001912e-02       0.000000000000e+00
      4.603151491399e-02      -1.093781816831e-02       0.000000000000e+00
      5.270671066892e-02      -7.854748412058e-03       0.000000000000e+00
      5.839527430337e-02      -5.360697054186e-03       0.000000000000e+00
      6.289954426607e-02      -3.456931402583e-03       0.000000000000e+00
      6.610492751486e-02      -2.041746524680e-03       0.000000000000e+00
      6.797831784513e-02      -9.512300706433e-04       0.000000000000e+00
      6.856331299353e-02       0.000000000000e+00       0.000000000000e+00
      4.702573737460e-17      -2.976081714216e-02       0.000000000000e+00
      5.374151372942e-03      -2.932350036765e-02       0.000000000000e+00
      1.093019993911e-02      -2.781722491835e-02       0.000000000000e+00
      1.682930384852e-02      -2.532947685263e-02       0.000000000000e+00
      2.319325613578e-02      -2.203370538495e-02       0.000000000000e+00
      3.007062244151e-02      -1.818364012914e-02       0.000000000000e+00
      3.739172095626e-02      -1.410633955617e-02       0.000000000000e+00
      4.115916175882e-02      -1.209112286364e-02       0.000000000000e+00
      4.488525014094e-02      -1.018513110747e-02       0.000000000000e+00
      5.185298023178e-02      -6.895759383526e-03       0.000000000000e+00
      5.792570658456e-02      -4.367030707603e-03       0.000000000000e+00
      6.285087038334e-02      -2.567263320301e-03       0.000000000000e+00
      6.645201278150e-02      -1.367793550477e-03       0.000000000000e+00
      6.861863623721e-02      -5.833378404255e-04       0.000000000000e+00
      6.930173477885e-02       0.000000000000e+00       0.000000000000e+00
      5.162269751161e-17      -3.125187890346e-02       0.000000000000e+00
      5.877215106291e-03      -3.070827231928e-02       0.000000000000e+00
      1.185591325250e-02      -2.894863098040e-02       0.000000000000e+00
      1.807508088330e-02      -2.618826907251e-02       0.000000000000e+00
      2.460875993040e-02      -2.269757371254e-02       0.000000000000e+00
      3.146264152620e-02      -1.876908410141e-02       0.000000000000e+00
      3.856673251517e-02      -1.470506122142e-02       0.000000000000e+00
      4.216990082025e-02      -1.271204586722e-02       0.000000000000e+00
      4.572945848706e-02      -1.081749491709e-02       0.000000000000e+00
      5.245738086839e-02      -7.477449627906e-03       0.000000000000e+00
      5.846410844321e-02      -4.808302033207e-03       0.000000000000e+00