# vtk DataFile Version 3.0
plate_with_hole_C1_coarse_02.vtk
ASCII
DATASET UNSTRUCTURED_GRID
FIELD FieldData 2
TIME 1 1 double
1.000000e+00
CYCLE 1 1 int
2
POINTS 420 double
     -1.000000000000e+00       0.000000000000e+00       0.000000000000e+00
     -9.938260386145e-01       1.109495604852e-01       0.000000000000e+00
     -9.743774847164e-01       2.249189126723e-01       0.000000000000e+00
     -9.405651881600e-01       3.396132017775e-01       0.000000000000e+00
     -8.918273451558e-01       4.523759348511e-01       0.000000000000e+00
     -8.282595980456e-01       5.603445709966e-01       0.000000000000e+00
     -7.506872886957e-01       6.606576985025e-01       0.000000000000e+00
     -7.071067811865e-01       7.071067811865e-01       0.000000000000e+00
     -6.606576985025e-01       7.506872886957e-01       0.000000000000e+00
     -5.603445709966e-01       8.282595980456e-01       0.000000000000e+00
     -4.523759348511e-01       8.918273451558e-01       0.000000000000e+00
     -3.396132017775e-01       9.405651881600e-01       0.000000000000e+00
     -2.249189126723e-01       9.743774847164e-01       0.000000000000e+00
     -1.109495604852e-01       9.938260386145e-01       0.000000000000e+00
      0.000000000000e+00       1.000000000000e+00       0.000000000000e+00
     -1.230769230769e+00       0.000000000000e+00       0.000000000000e+00
     -1.230972274642e+00       1.353150158346e-01       0.000000000000e+00
     -1.212654985747e+00       2.744117522753e-01       0.000000000000e+00
     -1.174373023406e+00       4.149533435887e-01       0.000000000000e+00
     -1.115301965098e+00       5.542675987351e-01       0.000000000000e+00
     -1.035375574487e+00       6.894810683914e-01       0.000000000000e+00
     -9.353669588135e-01       8.176924546372e-01       0.000000000000e+00
     -8.783057633002e-01       8.783057633002e-01       0.000000000000e+00
     -8.176924546372e-01       9.353669588135e-01       0.000000000000e+00
     -6.894810683914e-01       1.035375574487e+00       0.000000000000e+00
     -5.542675987351e-01       1.115301965098e+00       0.000000000000e+00
     -4.149533435887e-01       1.174373023406e+00       0.000000000000e+00
     -2.744117522753e-01       1.212654985747e+00       0.000000000000e+00
     -1.353150158346e-01       1.230972274642e+00       0.000000000000e+00
      0.000000000000e+00       1.230769230769e+00       0.000000000000e+00
     -1.461538461538e+00       0.000000000000e+00       0.000000000000e+00
     -1.465781160041e+00       1.689052362482e-01       0.000000000000e+00
     -1.447454360725e+00       3.398548270215e-01       0.000000000000e+00
     -1.405037410494e+00       5.102629759727e-01       0.000000000000e+00
     -1.337648271163e+00       6.773079093747e-01       0.000000000000e+00
     -1.245162504520e+00       8.380613613717e-01       0.000000000000e+00
     -1.128283134971e+00       9.896419772190e-01       0.000000000000e+00
     -1.061144912941e+00       1.061144912941e+00       0.000000000000e+00
     -9.896419772190e-01       1.128283134971e+00       0.000000000000e+00
     -8.380613613717e-01       1.245162504520e+00       0.000000000000e+00
     -6.773079093747e-01       1.337648271163e+00       0.000000000000e+00
     -5.102629759727e-01       1.405037410494e+00       0.000000000000e+00
     -3.398548270215e-01       1.447454360725e+00       0.000000000000e+00
     -1.689052362482e-01       1.465781160041e+00       0.000000000000e+00
      0.000000000000e+00       1.461538461538e+00       0.000000000000e+00
     -1.692307692308e+00       0.000000000000e+00       0.000000000000e+00
     -1.698648886626e+00       2.116104661677e-01       0.000000000000e+00
     -1.679554731257e+00       4.209136205287e-01       0.000000000000e+00
     -1.633607956406e+00       6.250136271663e-01       0.000000000000e+00
     -1.559991889446e+00       8.209220562813e-01       0.000000000000e+00
     -1.458580625462e+00       1.005683150062e+00       0.000000000000e+00
     -1.329991188073e+00       1.176508696558e+00       0.000000000000e+00
     -1.255903036725e+00       1.255903036725e+00       0.000000000000e+00
     -1.176508696558e+00       1.329991188073e+00       0.000000000000e+00
     -1.005683150062e+00       1.458580625462e+00       0.000000000000e+00
     -8.209220562813e-01       1.559991889446e+00       0.000000000000e+00
     -6.250136271663e-01       1.633607956406e+00       0.000000000000e+00
     -4.209136205287e-01       1.679554731257e+00       0.000000000000e+00
     -2.116104661677e-01       1.698648886626e+00       0.000000000000e+00
      0.000000000000e+00       1.692307692308e+00       0.000000000000e+00
     -1.923076923077e+00       0.000000000000e+00       0.000000000000e+00
     -1.929957040999e+00       2.633508437863e-01       0.000000000000e+00
     -1.909687939932e+00       5.173551641804e-01       0.000000000000e+00
     -1.861058183552e+00       7.588580154422e-01       0.000000000000e+00
     -1.783380629901e+00       9.847688401963e-01       0.000000000000e+00
     -1.676554208392e+00       1.192176049881e+00       0.000000000000e+00
     -1.541098930255e+00       1.378460610998e+00       0.000000000000e+00
     -1.462969372063e+00       1.462969372063e+00       0.000000000000e+00
     -1.378460610998e+00       1.541098930255e+00       0.000000000000e+00
     -1.192176049881e+00       1.676554208392e+00       0.000000000000e+00
     -9.847688401963e-01       1.783380629901e+00       0.000000000000e+00
     -7.588580154422e-01       1.861058183552e+00       0.000000000000e+00
     -5.173551641804e-01       1.909687939932e+00       0.000000000000e+00
     -2.633508437863e-01       1.929957040999e+00       0.000000000000e+00
      0.000000000000e+00       1.923076923077e+00       0.000000000000e+00
     -2.153846153846e+00       0.000000000000e+00       0.000000000000e+00
     -2.160074896406e+00       3.240752167487e-01       0.000000000000e+00
     -2.138547657761e+00       6.290409179927e-01       0.000000000000e+00
     -2.088303118123e+00       9.116134143324e-01       0.000000000000e+00
     -2.008807059168e+00       1.168716374946e+00       0.000000000000e+00
     -1.899990833888e+00       1.397577556222e+00       0.000000000000e+00
     -1.762272677494e+00       1.595818500872e+00       0.000000000000e+00
     -1.682840091320e+00       1.682840091320e+00       0.000000000000e+00
     -1.595818500872e+00       1.762272677494e+00       0.000000000000e+00
     -1.397577556222e+00       1.899990833888e+00       0.000000000000e+00
     -1.168716374946e+00       2.008807059168e+00       0.000000000000e+00
     -9.116134143324e-01       2.088303118123e+00       0.000000000000e+00
     -6.290409179927e-01       2.138547657761e+00       0.000000000000e+00
     -3.240752167487e-01       2.160074896406e+00       0.000000000000e+00
      0.000000000000e+00       2.153846153846e+00       0.000000000000e+00
     -2.384615384615e+00       0.000000000000e+00       0.000000000000e+00
     -2.389361544060e+00       3.937602078238e-01       0.000000000000e+00
     -2.366797458939e+00       7.559213528164e-01       0.000000000000e+00
     -2.316214426067e+00       1.083249416235e+00       0.000000000000e+00
     -2.237227728673e+00       1.372824833501e+00       0.000000000000e+00
     -2.129798262632e+00       1.622116805106e+00       0.000000000000e+00
     -1.994244236426e+00       1.829048644676e+00       0.000000000000e+00
     -1.916118088806e+00       1.916118088806e+00       0.000000000000e+00
     -1.829048644676e+00       1.994244236426e+00       0.000000000000e+00
     -1.622116805106e+00       2.129798262632e+00       0.000000000000e+00
     -1.372824833501e+00       2.237227728673e+00       0.000000000000e+00
     -1.083249416235e+00       2.316214426067e+00       0.000000000000e+00
     -7.559213528164e-01       2.366797458939e+00       0.000000000000e+00
     -3.937602078238e-01       2.389361544060e+00       0.000000000000e+00
      0.000000000000e+00       2.384615384615e+00       0.000000000000e+00
     -2.615384615385e+00       0.000000000000e+00       0.000000000000e+00
     -2.618167891446e+00       4.724095125473e-01       0.000000000000e+00
     -2.595078081468e+00       8.980320257178e-01       0.000000000000e+00
     -2.545633701934e+00       1.273879402926e+00       0.000000000000e+00
     -2.469580008013e+00       1.597334977925e+00       0.000000000000e+00
     -2.366899770307e+00       1.866204676678e+00       0.000000000000e+00
     -2.237818966961e+00       2.078760114973e+00       0.000000000000e+00
     -2.163515652074e+00       2.163515652074e+00       0.000000000000e+00
     -2.078760114973e+00       2.237818966961e+00       0.000000000000e+00
     -1.866204676678e+00       2.366899770307e+00       0.000000000000e+00
     -1.597334977925e+00       2.469580008013e+00       0.000000000000e+00
     -1.273879402926e+00       2.545633701934e+00       0.000000000000e+00
     -8.980320257178e-01       2.595078081468e+00       0.000000000000e+00
     -4.724095125473e-01       2.618167891446e+00       0.000000000000e+00
      0.000000000000e+00       2.615384615385e+00       0.000000000000e+00
     -2.846153846154e+00       0.000000000000e+00       0.000000000000e+00
     -2.846838552324e+00       5.600534146954e-01       0.000000000000e+00
     -2.824014057041e+00       1.055490992222e+00       0.000000000000e+00
     -2.777384396749e+00       1.483755223443e+00       0.000000000000e+00
     -2.706797269815e+00       1.842661593062e+00       0.000000000000e+00
     -2.612248639298e+00       2.130429261228e+00       0.000000000000e+00
     -2.493885106133e+00       2.345706074216e+00       0.000000000000e+00
     -2.425859812883e+00       2.425859812883e+00       0.000000000000e+00
     -2.345706074216e+00       2.493885106133e+00       0.000000000000e+00
     -2.130429261228e+00       2.612248639298e+00       0.000000000000e+00
     -1.842661593062e+00       2.706797269815e+00       0.000000000000e+00
[...]
POINT_DATA 420
VECTORS DSPL double
     -6.726374046165e-02       0.000000000000e+00       0.000000000000e+00
     -6.686236500099e-02      -2.443879204407e-03       0.000000000000e+00
     -6.558887413488e-02      -4.963820156313e-03       0.000000000000e+00
     -6.336943314734e-02      -7.519201163566e-03       0.000000000000e+00
     -6.015800023435e-02      -1.005925518161e-02       0.000000000000e+00
     -5.594934912331e-02      -1.252376036864e-02       0.000000000000e+00
     -5.078459819614e-02      -1.484640474827e-02       0.000000000000e+00
     -4.787014049966e-02      -1.593278611240e-02       0.000000000000e+00
     -4.475393087776e-02      -1.695721258967e-02       0.000000000000e+00
     -3.799654525712e-02      -1.879179124185e-02       0.000000000000e+00
     -3.068981684651e-02      -2.029924754487e-02       0.000000000000e+00
     -2.303412076413e-02      -2.144487898549e-02       0.000000000000e+00
     -1.523142921699e-02      -2.220994286589e-02       0.000000000000e+00
     -7.496594536500e-03      -2.260167280122e-02       0.000000000000e+00
     -4.531620866162e-18      -2.270728188822e-02       0.000000000000e+00
     -6.845202187459e-02       0.000000000000e+00       0.000000000000e+00
     -6.786687796816e-02      -9.348640490479e-04       0.000000000000e+00
     -6.599358222272e-02      -2.008357946047e-03       0.000000000000e+00
     -6.278883050650e-02      -3.404996501992e-03       0.000000000000e+00
     -5.828618504102e-02      -5.287526647114e-03       0.000000000000e+00
     -5.260094047531e-02      -7.756055282393e-03       0.000000000000e+00
     -4.593186415435e-02      -1.080695549166e-02       0.000000000000e+00
     -4.230701350226e-02      -1.251753313782e-02       0.000000000000e+00
     -3.859105385468e-02      -1.429341791595e-02       0.000000000000e+00
     -3.122155011300e-02      -1.782134954347e-02       0.000000000000e+00
     -2.415799008098e-02      -2.107809095605e-02       0.000000000000e+00
     -1.754610036423e-02      -2.378343957561e-02       0.000000000000e+00
     -1.138731184614e-02      -2.573745898517e-02       0.000000000000e+00
     -5.587600672085e-03      -2.678692048163e-02       0.000000000000e+00
      3.816626808280e-17      -2.706255806410e-02       0.000000000000e+00
     -6.919026388742e-02       0.000000000000e+00       0.000000000000e+00
     -6.850814822716e-02      -5.726635787552e-04       0.000000000000e+00
     -6.634422433696e-02      -1.346358227849e-03       0.000000000000e+00
     -6.274796043275e-02      -2.533957775501e-03       0.000000000000e+00
     -5.783044443255e-02      -4.319348410011e-03       0.000000000000e+00
     -5.176883254517e-02      -6.829288442264e-03       0.000000000000e+00
     -4.481640274284e-02      -1.009269146503e-02       0.000000000000e+00
     -4.109968982060e-02      -1.198191506342e-02       0.000000000000e+00
     -3.734263137040e-02      -1.397739873796e-02       0.000000000000e+00
     -3.004369121881e-02      -1.800504839278e-02       0.000000000000e+00
     -2.318762073893e-02      -2.178988786686e-02       0.000000000000e+00
     -1.684038631612e-02      -2.500002484064e-02       0.000000000000e+00
     -1.094803377324e-02      -2.739040279472e-02       0.000000000000e+00
     -5.390473204037e-03      -2.875120753089e-02       0.000000000000e+00
      1.292962841198e-17      -2.914289976500e-02       0.000000000000e+00
     -7.040103532674e-02       0.000000000000e+00       0.000000000000e+00
     -6.964568593915e-02      -5.933058687291e-04       0.000000000000e+00
     -6.724902164880e-02      -1.458271230904e-03       0.000000000000e+00
     -6.341863521202e-02      -2.808145489611e-03       0.000000000000e+00
     -5.838904386933e-02      -4.780033762573e-03       0.000000000000e+00
     -5.239907415794e-02      -7.435306684421e-03       0.000000000000e+00
     -4.569152021183e-02      -1.075474593114e-02       0.000000000000e+00
     -4.214329014991e-02      -1.263561764237e-02       0.000000000000e+00
     -3.855184885040e-02      -1.461234884574e-02       0.000000000000e+00
     -3.147058561590e-02      -1.863481650328e-02       0.000000000000e+00
     -2.463605612982e-02      -2.250785849924e-02       0.000000000000e+00
     -1.811501569953e-02      -2.592366321307e-02       0.000000000000e+00
     -1.189687548880e-02      -2.859510812282e-02       0.000000000000e+00
     -5.908608134988e-03      -3.021152098717e-02       0.000000000000e+00
      2.412414151151e-17      -3.070863431347e-02       0.000000000000e+00
     -7.214378788390e-02       0.000000000000e+00       0.000000000000e+00
     -7.130885267563e-02      -8.089976662426e-04       0.000000000000e+00
     -6.870941703961e-02      -1.959805038919e-03       0.000000000000e+00
     -6.474963096733e-02      -3.647391503406e-03       0.000000000000e+00
     -5.978821072928e-02      -5.926176081931e-03       0.000000000000e+00
     -5.409405342538e-02      -8.760796844680e-03       0.000000000000e+00
     -4.785635279443e-02      -1.206603421842e-02       0.000000000000e+00
     -4.457766708076e-02      -1.386211965669e-02       0.000000000000e+00
     -4.122606691372e-02      -1.572533895140e-02       0.000000000000e+00
     -3.439444845287e-02      -1.954432126014e-02       0.000000000000e+00
     -2.747253061771e-02      -2.332626503400e-02       0.000000000000e+00
     -2.054819596963e-02      -2.682082628287e-02       0.000000000000e+00
     -1.367868312230e-02      -2.971709003893e-02       0.000000000000e+00
     -6.866284278997e-03      -3.159180102770e-02       0.000000000000e+00
      2.806947811474e-17      -3.220650833010e-02       0.000000000000e+00
     -7.435375228201e-02       0.000000000000e+00       0.000000000000e+00
     -7.342837015413e-02      -1.143088251603e-03       0.000000000000e+00
     -7.065914549901e-02      -2.692662818160e-03       0.000000000000e+00
     -6.666444279091e-02      -4.808761791744e-03       0.000000000000e+00
     -6.190175547675e-02      -7.440194483421e-03       0.000000000000e+00
     -5.662808789291e-02      -1.045120505110e-02       0.000000000000e+00
     -5.095486720231e-02      -1.370040754150e-02       0.000000000000e+00
     -4.798212838094e-02      -1.537831197631e-02       0.000000000000e+00
     -4.489456669541e-02      -1.709102491659e-02       0.000000000000e+00
     -3.831079615580e-02      -2.063355270670e-02       0.000000000000e+00
     -3.123818647832e-02      -2.425368393900e-02       0.000000000000e+00
     -2.377965898117e-02      -2.777386810440e-02       0.000000000000e+00
     -1.605546844096e-02      -3.088162777554e-02       0.000000000000e+00
     -8.149733095542e-03      -3.304280693176e-02       0.000000000000e+00
      3.466478119303e-17      -3.379760018437e-02       0.000000000000e+00
     -7.693547508412e-02       0.000000000000e+00       0.000000000000e+00
     -7.591339538048e-02      -1.564049464828e-03       0.000000000000e+00
     -7.302502838083e-02      -3.592422757489e-03       0.000000000000e+00
     -6.909852144952e-02      -6.190409834499e-03       0.000000000000e+00
     -6.464591828107e-02      -9.185626816009e-03       0.000000000000e+00
     -5.987092908853e-02      -1.235231532517e-02       0.000000000000e+00
     -5.480003381206e-02      -1.551255053474e-02       0.000000000000e+00
     -5.214359141698e-02      -1.705427979226e-02       0.000000000000e+00
     -4.932508292433e-02      -1.860013310712e-02       0.000000000000e+00
     -4.297744159544e-02      -2.183805794780e-02       0.000000000000e+00
     -3.571541492996e-02      -2.526485141025e-02       0.000000000000e+00
     -2.764085026753e-02      -2.878321775071e-02       0.000000000000e+00
     -1.891733030026e-02      -3.210363986639e-02       0.000000000000e+00
     -9.705363627325e-03      -3.459434439043e-02       0.000000000000e+00
      6.755230082605e-17      -3.552117897385e-02       0.000000000000e+00
     -7.980502905238e-02       0.000000000000e+00       0.000000000000e+00
     -7.869295213101e-02      -2.055225135496e-03       0.000000000000e+00
     -7.575914534912e-02      -4.627909989521e-03       0.000000000000e+00
     -7.201410048065e-02      -7.745754479484e-03       0.000000000000e+00
     -6.796956689767e-02      -1.110382688795e-02       0.000000000000e+00
     -6.374435914855e-02      -1.440153463878e-02       0.000000000000e+00
     -5.928807546431e-02      -1.744277713523e-02       0.000000000000e+00
     -5.694870236004e-02      -1.883381339615e-02       0.000000000000e+00
     -5.439781025940e-02      -2.020070042314e-02       0.000000000000e+00
     -4.826934558586e-02      -2.311465789434e-02       0.000000000000e+00
     -4.078460132805e-02      -2.632566122401e-02       0.000000000000e+00
     -3.203165981966e-02      -2.982264433025e-02       0.000000000000e+00
     -2.219433607621e-02      -3.336453070541e-02       0.000000000000e+00
     -1.149698648011e-02      -3.623951557014e-02       0.000000000000e+00
      7.949458678614e-17      -3.737788121667e-02       0.000000000000e+00
     -8.289388965504e-02       0.000000000000e+00       0.000000000000e+00
     -8.171641638939e-02      -2.608007304437e-03       0.000000000000e+00
     -7.883806906857e-02      -5.787147541782e-03       0.000000000000e+00
     -7.539735697778e-02      -9.461514274400e-03       0.000000000000e+00
     -7.184769255579e-02      -1.318345762896e-02       0.000000000000e+00
     -6.820662866477e-02      -1.659246941768e-02       0.000000000000e+00
     -6.436779665972e-02      -1.948834115382e-02       0.000000000000e+00
     -6.234570839012e-02      -2.071399236245e-02       0.000000000000e+00
     -6.006016883233e-02      -2.188802453890e-02       0.000000000000e+00
     -5.412720172280e-02      -2.445131409399e-02       0.000000000000e+00
     -4.637847701877e-02      -2.741347924524e-02       0.000000000000e+00
     -3.688341180738e-02      -3.086009352280e-02       0.000000000000e+00
     -2.582970749196e-02      -3.463019276056e-02       0.000000000000e+00
     -1.349110755797e-02      -3.795441779373e-02       0.000000000000e+00
      7.390401952877e-17      -3.935224892844e-02       0.000000000000e+00
     -8.614765066761e-02       0.000000000000e+00       0.000000000000e+00
     -8.495276511287e-02      -3.218697902511e-03       0.000000000000e+00
     -8.226141002246e-02      -7.072647167916e-03       0.000000000000e+00
     -7.925507129452e-02      -1.135051165313e-02       0.000000000000e+00
     -7.627614974287e-02      -1.544978531971e-02       0.000000000000e+00
     -7.324422368143e-02      -1.896305199235e-02       0.000000000000e+00
     -7.002838871098e-02      -2.169426601765e-02       0.000000000000e+00
     -6.832754366178e-02      -2.274122718767e-02       0.000000000000e+00
     -6.630894695065e-02      -2.370696415951e-02       0.000000000000e+00
     -6.054542369377e-02      -2.587959992561e-02       0.000000000000e+00
     -5.247127988901e-02      -2.853772189864e-02       0.000000000000e+00
     -4.214790946409e-02      -3.187721385658e-02       0.000000000000e+00
     -2.976724411215e-02      -3.586369060113e-02       0.000000000000e+00
     -1.564700506961e-02      -3.970725412937e-02       0.000000000000e+00
      6.427490099086e-17      -4.142192335284e-02       0.000000000000e+00
     -8.952224017068e-02       0.000000000000e+00       0.000000000000e+00
     -8.838850193572e-02      -3.888078129367e-03       0.000000000000e+00
     -8.604863488230e-02      -8.501778007242e-03       0.000000000000e+00
     -8.360966347112e-02      -1.345115714723e-02       0.000000000000e+00
     -8.126809360622e-02      -1.796240687384e-02       0.000000000000e+00
     -7.887237217523e-02      -2.159316685954e-02       0.000000000000e+00
     -7.630360045050e-02      -2.415691625015e-02       0.000000000000e+00
     -7.494509299897e-02      -2.501483902239e-02       0.000000000000e+00
     -7.320706094927e-02      -2.575738772558e-02       0.000000000000e+00
     -6.758165106644e-02      -2.749114011770e-02       0.000000000000e+00
     -5.909169064706e-02      -2.976033331245e-02       0.000000000000e+00
     -4.780633935743e-02      -3.288988062806e-02       0.000000000000e+00
     -3.394975675893e-02      -3.703685671570e-02       0.000000000000e+00
     -1.790933060090e-02      -4.146142943343e-02       0.000000000000e+00
      4.635053694188e-17      -4.355918785678e-02       0.000000000000e+00
     -9.297977908152e-02       0.000000000000e+00       0.000000000000e+00
     -9.202658511415e-02      -4.622011381291e-03       0.000000000000e+00
     -9.023533675143e-02      -1.010899948092e-02       0.000000000000e+00
     -8.849435634603e-02      -1.582816006120e-02       0.000000000000e+00
     -8.685224802015e-02      -2.081286065218e-02       0.000000000000e+00
     -8.513697239102e-02      -2.459798846547e-02       0.000000000000e+00
     -8.327904300566e-02      -2.700560901763e-02       0.000000000000e+00
     -8.229858229722e-02      -2.767172636255e-02       0.000000000000e+00
     -8.086911636402e-02      -2.817940426331e-02       0.000000000000e+00
     -7.537453689688e-02      -2.942311855536e-02       0.000000000000e+00
     -6.635142347509e-02      -3.120685353709e-02       0.000000000000e+00
     -5.389656056133e-02      -3.397144571109e-02       0.000000000000e+00
     -3.832906892300e-02      -3.814648690389e-02       0.000000000000e+00
     -2.020117828520e-02      -4.317899306003e-02       0.000000000000e+00
      2.540714995616e-17      -4.572934485055e-02       0.000000000000e+00
     -9.648454231163e-02       0.000000000000e+00       0.000000000000e+00
     -9.588566836547e-02      -5.432746338588e-03       0.000000000000e+00
     -9.486871708237e-02      -1.194845535932e-02       0.000000000000e+00
     -9.394637540648e-02      -1.857141488075e-02       0.000000000000e+00
     -9.307142321361e-02      -2.411503429257e-02       0.000000000000e+00
     -9.212650576154e-02      -2.811710914019e-02       0.000000000000e+00
     -9.110113346897e-02      -3.040508194704e-02       0.000000000000e+00
     -9.057362424646e-02      -3.087508971116e-02       0.000000000000e+00
     -8.950554199834e-02      -3.113227587766e-02       0.000000000000e+00
     -8.413055315531e-02      -3.182667720188e-02       0.000000000000e+00
     -7.445540180746e-02      -3.302754306981e-02       0.000000000000e+00
     -6.056058980331e-02      -3.526280911639e-02       0.000000000000e+00
     -4.289366999236e-02      -3.923980184846e-02       0.000000000000e+00
     -2.241766772852e-02      -4.482543898316e-02       0.000000000000e+00
      7.657574506993e-18      -4.788754721043e-02       0.000000000000e+00
     -1.000000000000e-01       0.000000000000e+00       0.000000000000e+00
     -1.000000000000e-01      -6.340919413465e-03       0.000000000000e+00
     -1.000000000000e-01      -1.409770377683e-02       0.000000000000e+00
     -1.000000000000e-01      -2.178342657992e-02       0.000000000000e+00
     -1.000000000000e-01      -2.798589212214e-02       0.000000000000e+00
     -1.000000000000e-01      -3.229379853329e-02       0.000000000000e+00
     -1.000000000000e-01      -3.449987087353e-02       0.000000000000e+00
     -9.997867142332e-02      -3.478992096054e-02       0.000000000000e+00
     -9.931511707139e-02      -3.479547768901e-02       0.000000000000e+00
     -9.410024449714e-02      -3.486212111127e-02       0.000000000000e+00
     -8.363625204233e-02      -3.534986015553e-02       0.000000000000e+00
     -6.804905249234e-02      -3.691761295527e-02       0.000000000000e+00
     -4.773583680962e-02      -4.043832017779e-02       0.000000000000e+00
     -2.442237428179e-02      -4.638655222678e-02       0.000000000000e+00
     -1.896526067402e-17      -4.997216911811e-02       0.000000000000e+00
     -4.531620866162e-18      -2.270728188822e-02       0.000000000000e+00
      7.496594536500e-03      -2.260167280122e-02       0.000000000000e+00
      1.523142921699e-02      -2.220994286589e-02       0.000000000000e+00
      2.303412076413e-02      -2.144487898549e-02       0.000000000000e+00
      3.068981684651e-02      -2.029924754487e-02       0.000000000000e+00
      3.799654525712e-02      -1.879179124185e-02       0.000000000000e+00
      4.475393087776e-02      -1.695721258967e-02       0.000000000000e+00
      4.787014049966e-02      -1.593278611240e-02       0.000000000000e+00
      5.078459819614e-02      -1.484640474827e-02       0.000000000000e+00
      5.594934912331e-02      -1.252376036864e-02       0.000000000000e+00
      6.015800023435e-02      -1.005925518161e-02       0.000000000000e+00
      6.336943314734e-02      -7.519201163566e-03       0.000000000000e+00
      6.558887413488e-02      -4.963820156313e-03       0.000000000000e+00
      6.686236500099e-02      -2.443879204407e-03       0.000000000000e+00
      6.726374046165e-02       0.000000000000e+00       0.000000000000e+00
      3.816626808280e-17      -2.706255806410e-02       0.000000000000e+00
      5.587600672085e-03      -2.678692048163e-02       0.000000000000e+00
      1.138731184614e-02      -2.573745898517e-02       0.000000000000e+00
      1.754610036423e-02      -2.378343957561e-02       0.000000000000e+00
      2.415799008098e-02      -2.107809095605e-02       0.000000000000e+00
      3.122155011300e-02      -1.782134954347e-02       0.000000000000e+00
      3.859105385468e-02      -1.429341791595e-02       0.000000000000e+00
      4.230701350226e-02      -1.251753313782e-02       0.000000000000e+00
      4.593186415435e-02      -1.080695549166e-02       0.000000000000e+00
      5.260094047531e-02      -7.756055282393e-03       0.000000000000e+00
      5.828618504102e-02      -5.287526647114e-03       0.000000000000e+00
      6.278883050650e-02      -3.404996501992e-03       0.000000000000e+00
      6.599358222272e-02      -2.008357946047e-03       0.000000000000e+00
      6.786687796816e-02      -9.348640490479e-04       0.000000000000e+00
      6.845202187459e-02       0.000000000000e+00       0.000000000000e+00
      1.292962841198e-17      -2.914289976500e-02       0.000000000000e+00
      5.390473204037e-03      -2.875120753089e-02       0.000000000000e+00
      1.094803377324e-02      -2.739040279472e-02       0.000000000000e+00
      1.684038631612e-02      -2.500002484064e-02       0.000000000000e+00
      2.318762073893e-02      -2.178988786686e-02       0.000000000000e+00
      3.004369121881e-02      -1.800504839278e-02       0.000000000000e+00
      3.734263137040e-02      -1.397739873796e-02       0.000000000000e+00
      4.109968982060e-02      -1.198191506342e-02       0.000000000000e+00
      4.481640274284e-02      -1.009269146503e-02       0.000000000000e+00
      5.176883254517e-02      -6.829288442264e-03       0.000000000000e+00
      5.783044443255e-02      -4.319348410011e-03       0.000000000000e+00
      6.274796043275e-02      -2.533957775501e-03       0.000000000000e+00
      6.634422433696e-02      -1.346358227849e-03       0.000000000000e+00
      6.850814822716e-02      -5.726635787551e-04       0.000000000000e+00
      6.919026388742e-02       0.000000000000e+00       0.000000000000e+00
      2.412414151151e-17      -3.070863431347e-02       0.000000000000e+00
      5.908608134988e-03      -3.021152098717e-02       0.000000000000e+00
      1.189687548880e-02      -2.859510812282e-02       0.000000000000e+00
      1.811501569953e-02      -2.592366321307e-02       0.000000000000e+00
      2.463605612982e-02      -2.250785849924e-02       0.000000000000e+00
      3.147058561590e-02      -1.863481650328e-02       0.000000000000e+00
      3.855184885040e-02      -1.461234884574e-02       0.000000000000e+00
      4.214329014991e-02      -1.263561764237e-02       0.000000000000e+00
      4.569152021183e-02      -1.075474593114e-02       0.000000000000e+00
      5.239907415794e-02      -7.435306684421e-03       0.000000000000e+00
      5.838904386933e-02      -4.780033762573e-03       0.000000000000e+00