# vtk DataFile Version 3.0
plate_with_hole_C0_fine_02.vtk
ASCII
DATASET UNSTRUCTURED_GRID
FIELD FieldData 2
TIME 1 1 double
1.000000e+00
CYCLE 1 1 int
2
POINTS 5406 double
     -1.000000000000e+00       0.000000000000e+00       0.000000000000e+00
     -9.995953540927e-01       2.844517667730e-02       0.000000000000e+00
     -9.983631810689e-01       5.719229568730e-02       0.000000000000e+00
     -9.962769981427e-01       8.620987746099e-02       0.000000000000e+00
     -9.933116387851e-01       1.154642293271e-01       0.000000000000e+00
     -9.894434504818e-01       1.449194890232e-01       0.000000000000e+00
     -9.846504941859e-01       1.745376873325e-01       0.000000000000e+00
     -9.789127434836e-01       2.042788306347e-01       0.000000000000e+00
     -9.722122813221e-01       2.341010039415e-01       0.000000000000e+00
     -9.645334920132e-01       2.639604947428e-01       0.000000000000e+00
     -9.558632461070e-01       2.938119377116e-01       0.000000000000e+00
     -9.461910756620e-01       3.236084800151e-01       0.000000000000e+00
     -9.355093373955e-01       3.533019666601e-01       0.000000000000e+00
     -9.238133612119e-01       3.828431449647e-01       0.000000000000e+00
     -9.111015816617e-01       4.121818869061e-01       0.000000000000e+00
     -8.973756499954e-01       4.412674277526e-01       0.000000000000e+00
     -8.826405246344e-01       4.700486190524e-01       0.000000000000e+00
     -8.669045380994e-01       4.984741937379e-01       0.000000000000e+00
     -8.501794386940e-01       5.264930408106e-01       0.000000000000e+00
     -8.324804055578e-01       5.540544868173e-01       0.000000000000e+00
     -8.138260360511e-01       5.811085811149e-01       0.000000000000e+00
     -7.942383048221e-01       6.076063817582e-01       0.000000000000e+00
     -7.737424943223e-01       6.335002387370e-01       0.000000000000e+00
     -7.523670969671e-01       6.587440712457e-01       0.000000000000e+00
     -7.301436895785e-01       6.832936356858e-01       0.000000000000e+00
     -7.187246563393e-01       6.952948068049e-01       0.000000000000e+00
     -7.071067811865e-01       7.071067811865e-01       0.000000000000e+00
     -6.952948068049e-01       7.187246563393e-01       0.000000000000e+00
     -6.832936356858e-01       7.301436895785e-01       0.000000000000e+00
     -6.587440712457e-01       7.523670969671e-01       0.000000000000e+00
     -6.335002387370e-01       7.737424943223e-01       0.000000000000e+00
     -6.076063817582e-01       7.942383048221e-01       0.000000000000e+00
     -5.811085811149e-01       8.138260360511e-01       0.000000000000e+00
     -5.540544868173e-01       8.324804055578e-01       0.000000000000e+00
     -5.264930408106e-01       8.501794386940e-01       0.000000000000e+00
     -4.984741937379e-01       8.669045380994e-01       0.000000000000e+00
     -4.700486190524e-01       8.826405246344e-01       0.000000000000e+00
     -4.412674277526e-01       8.973756499954e-01       0.000000000000e+00
     -4.121818869061e-01       9.111015816617e-01       0.000000000000e+00
     -3.828431449647e-01       9.238133612119e-01       0.000000000000e+00
     -3.533019666601e-01       9.355093373955e-01       0.000000000000e+00
     -3.236084800151e-01       9.461910756620e-01       0.000000000000e+00
     -2.938119377116e-01       9.558632461070e-01       0.000000000000e+00
     -2.639604947428e-01       9.645334920132e-01       0.000000000000e+00
     -2.341010039415e-01       9.722122813221e-01       0.000000000000e+00
     -2.042788306347e-01       9.789127434836e-01       0.000000000000e+00
     -1.745376873325e-01       9.846504941859e-01       0.000000000000e+00
     -1.449194890232e-01       9.894434504818e-01       0.000000000000e+00
     -1.154642293271e-01       9.933116387851e-01       0.000000000000e+00
     -8.620987746099e-02       9.962769981427e-01       0.000000000000e+00
     -5.719229568730e-02       9.983631810689e-01       0.000000000000e+00
     -2.844517667730e-02       9.995953540927e-01       0.000000000000e+00
      0.000000000000e+00       1.000000000000e+00       0.000000000000e+00
     -1.060000000000e+00       0.000000000000e+00       0.000000000000e+00
     -1.060225046543e+00       2.981917845522e-02       0.000000000000e+00
     -1.059529889741e+00       5.996857799558e-02       0.000000000000e+00
     -1.057885344064e+00       9.041697775835e-02       0.000000000000e+00
     -1.055263637803e+00       1.211309659857e-01       0.000000000000e+00
     -1.051638620140e+00       1.520749815735e-01       0.000000000000e+00
     -1.046985969652e+00       1.832113736714e-01       0.000000000000e+00
     -1.041283402259e+00       2.145004800414e-01       0.000000000000e+00
     -1.034510876430e+00       2.459007246844e-01       0.000000000000e+00
     -1.026650793375e+00       2.773687350191e-01       0.000000000000e+00
     -1.017688189795e+00       3.088594786491e-01       0.000000000000e+00
     -1.007610920747e+00       3.403264194820e-01       0.000000000000e+00
     -9.964098300932e-01       3.717216926784e-01       0.000000000000e+00
     -9.840789060815e-01       4.029962976059e-01       0.000000000000e+00
     -9.706154196079e-01       4.341003076706e-01       0.000000000000e+00
     -9.560200428551e-01       4.649830955904e-01       0.000000000000e+00
     -9.402969461466e-01       4.955935723767e-01       0.000000000000e+00
     -9.234538710644e-01       5.258804380078e-01       0.000000000000e+00
     -9.055021781356e-01       5.557924415172e-01       0.000000000000e+00
     -8.864568676893e-01       5.852786479869e-01       0.000000000000e+00
     -8.663365728272e-01       6.142887097417e-01       0.000000000000e+00
     -8.451635238192e-01       6.427731388906e-01       0.000000000000e+00
     -8.229634836369e-01       6.706835782561e-01       0.000000000000e+00
     -7.997656547517e-01       6.979730676821e-01       0.000000000000e+00
     -7.756025577473e-01       7.245963027157e-01       0.000000000000e+00
     -7.631700676471e-01       7.376444312474e-01       0.000000000000e+00
     -7.505098827216e-01       7.505098827216e-01       0.000000000000e+00
     -7.376444312474e-01       7.631700676471e-01       0.000000000000e+00
     -7.245963027157e-01       7.756025577473e-01       0.000000000000e+00
     -6.979730676821e-01       7.997656547517e-01       0.000000000000e+00
     -6.706835782561e-01       8.229634836369e-01       0.000000000000e+00
     -6.427731388906e-01       8.451635238192e-01       0.000000000000e+00
     -6.142887097417e-01       8.663365728272e-01       0.000000000000e+00
     -5.852786479869e-01       8.864568676893e-01       0.000000000000e+00
     -5.557924415172e-01       9.055021781356e-01       0.000000000000e+00
     -5.258804380078e-01       9.234538710644e-01       0.000000000000e+00
     -4.955935723767e-01       9.402969461466e-01       0.000000000000e+00
     -4.649830955904e-01       9.560200428551e-01       0.000000000000e+00
     -4.341003076706e-01       9.706154196079e-01       0.000000000000e+00
     -4.029962976059e-01       9.840789060815e-01       0.000000000000e+00
     -3.717216926784e-01       9.964098300932e-01       0.000000000000e+00
     -3.403264194820e-01       1.007610920747e+00       0.000000000000e+00
     -3.088594786491e-01       1.017688189795e+00       0.000000000000e+00
     -2.773687350191e-01       1.026650793375e+00       0.000000000000e+00
     -2.459007246844e-01       1.034510876430e+00       0.000000000000e+00
     -2.145004800414e-01       1.041283402259e+00       0.000000000000e+00
     -1.832113736714e-01       1.046985969652e+00       0.000000000000e+00
     -1.520749815735e-01       1.051638620140e+00       0.000000000000e+00
     -1.211309659857e-01       1.055263637803e+00       0.000000000000e+00
     -9.041697775835e-02       1.057885344064e+00       0.000000000000e+00
     -5.996857799558e-02       1.059529889741e+00       0.000000000000e+00
     -2.981917845522e-02       1.060225046543e+00       0.000000000000e+00
      0.000000000000e+00       1.060000000000e+00       0.000000000000e+00
     -1.120000000000e+00       0.000000000000e+00       0.000000000000e+00
     -1.120802079578e+00       3.137115540050e-02       0.000000000000e+00
     -1.120595381118e+00       6.309118759241e-02       0.000000000000e+00
     -1.119348500822e+00       9.512866358842e-02       0.000000000000e+00
     -1.117031542457e+00       1.274499931321e-01       0.000000000000e+00
     -1.113616330060e+00       1.600194710098e-01       0.000000000000e+00
     -1.109076621681e+00       1.927993364507e-01       0.000000000000e+00
     -1.103388322161e+00       2.257498502260e-01       0.000000000000e+00
     -1.096529692814e+00       2.588293898761e-01       0.000000000000e+00
     -1.088481555734e+00       2.919945632897e-01       0.000000000000e+00
     -1.079227490372e+00       3.252003406287e-01       0.000000000000e+00
     -1.068754019974e+00       3.584002043517e-01       0.000000000000e+00
     -1.057050785440e+00       3.915463168278e-01       0.000000000000e+00
     -1.044110704183e+00       4.245897047633e-01       0.000000000000e+00
     -1.029930111638e+00       4.574804593924e-01       0.000000000000e+00
     -1.014508883170e+00       4.901679511094e-01       0.000000000000e+00
     -9.978505342983e-01       5.226010569546e-01       0.000000000000e+00
     -9.799622973350e-01       5.547283991154e-01       0.000000000000e+00
     -9.608551727904e-01       5.864985923714e-01       0.000000000000e+00
     -9.405439541867e-01       6.178604982055e-01       0.000000000000e+00
     -9.190472252310e-01       6.487634831321e-01       0.000000000000e+00
     -8.963873286570e-01       6.791576786530e-01       0.000000000000e+00
     -8.725903064199e-01       7.089942401585e-01       0.000000000000e+00
     -8.476858113195e-01       7.382256020432e-01       0.000000000000e+00
     -8.217069905302e-01       7.668057263009e-01       0.000000000000e+00
[...]
POINT_DATA 5406
VECTORS DSPL double
     -6.737174049385e-02       0.000000000000e+00       0.000000000000e+00
     -6.734532718971e-02      -6.330488855751e-04       0.000000000000e+00
     -6.726481301068e-02      -1.272990852843e-03       0.000000000000e+00
     -6.712846471405e-02      -1.919278649629e-03       0.000000000000e+00
     -6.693460334772e-02      -2.571329921038e-03       0.000000000000e+00
     -6.668163544381e-02      -3.228524792872e-03       0.000000000000e+00
     -6.636806131414e-02      -3.890200457865e-03       0.000000000000e+00
     -6.599248918229e-02      -4.555651006907e-03       0.000000000000e+00
     -6.555364733275e-02      -5.224126733976e-03       0.000000000000e+00
     -6.505039687927e-02      -5.894834278189e-03       0.000000000000e+00
     -6.448174412517e-02      -6.566936930597e-03       0.000000000000e+00
     -6.384685274101e-02      -7.239555351927e-03       0.000000000000e+00
     -6.314505549894e-02      -7.911768665415e-03       0.000000000000e+00
     -6.237586545303e-02      -8.582615988995e-03       0.000000000000e+00
     -6.153898638715e-02      -9.251098436219e-03       0.000000000000e+00
     -6.063432236912e-02      -9.916181618971e-03       0.000000000000e+00
     -5.966198623755e-02      -1.057679868129e-02       0.000000000000e+00
     -5.862230686422e-02      -1.123185387358e-02       0.000000000000e+00
     -5.751583500612e-02      -1.188022669744e-02       0.000000000000e+00
     -5.634334768143e-02      -1.252077657159e-02       0.000000000000e+00
     -5.510585066044e-02      -1.315234812796e-02       0.000000000000e+00
     -5.380457984877e-02      -1.377377673195e-02       0.000000000000e+00
     -5.244099875954e-02      -1.438389548058e-02       0.000000000000e+00
     -5.101679946678e-02      -1.498153928487e-02       0.000000000000e+00
     -4.953389029283e-02      -1.556555804878e-02       0.000000000000e+00
     -4.877107774169e-02      -1.585210379764e-02       0.000000000000e+00
     -4.799439979072e-02      -1.613481660532e-02       0.000000000000e+00
     -4.720415658068e-02      -1.641356340723e-02       0.000000000000e+00
     -4.640065690731e-02      -1.668820837933e-02       0.000000000000e+00
     -4.475518206024e-02      -1.722465235845e-02       0.000000000000e+00
     -4.306068685622e-02      -1.774312158174e-02       0.000000000000e+00
     -4.132003669413e-02      -1.824262633891e-02       0.000000000000e+00
     -3.953625852824e-02      -1.872223624849e-02       0.000000000000e+00
     -3.771251009810e-02      -1.918108401737e-02       0.000000000000e+00
     -3.585206571950e-02      -1.961837133092e-02       0.000000000000e+00
     -3.395829627755e-02      -2.003337501759e-02       0.000000000000e+00
     -3.203464940978e-02      -2.042545224793e-02       0.000000000000e+00
     -3.008462923316e-02      -2.079404499566e-02       0.000000000000e+00
     -2.811177582595e-02      -2.113868371674e-02       0.000000000000e+00
     -2.611964482745e-02      -2.145899010364e-02       0.000000000000e+00
     -2.411178734201e-02      -2.175467892710e-02       0.000000000000e+00
     -2.209173040148e-02      -2.202555891754e-02       0.000000000000e+00
     -2.006295819322e-02      -2.227153269195e-02       0.000000000000e+00
     -1.802889425206e-02      -2.249259574037e-02       0.000000000000e+00
     -1.599288478311e-02      -2.268883449842e-02       0.000000000000e+00
     -1.395818327348e-02      -2.286042357625e-02       0.000000000000e+00
     -1.192793647303e-02      -2.300762214236e-02       0.000000000000e+00
     -9.905171953952e-03      -2.313076970310e-02       0.000000000000e+00
     -7.892786989108e-03      -2.323028084020e-02       0.000000000000e+00
     -5.893539884643e-03      -2.330664031195e-02       0.000000000000e+00
     -3.910041628782e-03      -2.336039464925e-02       0.000000000000e+00
     -1.944756778473e-03      -2.339215159455e-02       0.000000000000e+00
      4.984325608386e-16      -2.340254426634e-02       0.000000000000e+00
     -6.783809476285e-02       0.000000000000e+00       0.000000000000e+00
     -6.781097987176e-02      -4.825745771193e-04       0.000000000000e+00
     -6.771966782359e-02      -9.685870350644e-04       0.000000000000e+00
     -6.756205249509e-02      -1.459075190336e-03       0.000000000000e+00
     -6.733620821484e-02      -1.955127216832e-03       0.000000000000e+00
     -6.704040360008e-02      -2.457862637473e-03       0.000000000000e+00
     -6.667312031559e-02      -2.968407875458e-03       0.000000000000e+00
     -6.623306968727e-02      -3.487868970625e-03       0.000000000000e+00
     -6.571920702415e-02      -4.017302349188e-03       0.000000000000e+00
     -6.513074300664e-02      -4.557684394216e-03       0.000000000000e+00
     -6.446715188284e-02      -5.109880684341e-03       0.000000000000e+00
     -6.372817631999e-02      -5.674615742137e-03       0.000000000000e+00
     -6.291382888080e-02      -6.252444227172e-03       0.000000000000e+00
     -6.202439023480e-02      -6.843724534340e-03       0.000000000000e+00
     -6.106040436059e-02      -7.448595765116e-03       0.000000000000e+00
     -6.002267114531e-02      -8.066958997509e-03       0.000000000000e+00
     -5.891223693392e-02      -8.698463690479e-03       0.000000000000e+00
     -5.773038370339e-02      -9.342499915040e-03       0.000000000000e+00
     -5.647861765082e-02      -9.998196910688e-03       0.000000000000e+00
     -5.515865798309e-02      -1.066442821205e-02       0.000000000000e+00
     -5.377242688645e-02      -1.133982332320e-02       0.000000000000e+00
     -5.232204095841e-02      -1.202278564150e-02       0.000000000000e+00
     -5.080980627521e-02      -1.271151535488e-02       0.000000000000e+00
     -4.923821266202e-02      -1.340404036166e-02       0.000000000000e+00
     -4.760994237885e-02      -1.409823214845e-02       0.000000000000e+00
     -4.677543636575e-02      -1.444527717222e-02       0.000000000000e+00
     -4.592784836471e-02      -1.479188589937e-02       0.000000000000e+00
     -4.506877470927e-02      -1.513731848593e-02       0.000000000000e+00
     -4.419988833947e-02      -1.548085567140e-02       0.000000000000e+00
     -4.243505978121e-02      -1.616122085821e-02       0.000000000000e+00
     -4.063790657854e-02      -1.683098691676e-02       0.000000000000e+00
     -3.881302160200e-02      -1.748805242886e-02       0.000000000000e+00
     -3.696492238513e-02      -1.813025949673e-02       0.000000000000e+00
     -3.509801540680e-02      -1.875539169491e-02       0.000000000000e+00
     -3.321653883687e-02      -1.936119681372e-02       0.000000000000e+00
     -3.132451456572e-02      -1.994541017269e-02       0.000000000000e+00
     -2.942570660940e-02      -2.050578361194e-02       0.000000000000e+00
     -2.752358743587e-02      -2.104011758056e-02       0.000000000000e+00
     -2.562131311706e-02      -2.154629534889e-02       0.000000000000e+00
     -2.372170761437e-02      -2.202231788019e-02       0.000000000000e+00
     -2.182725620727e-02      -2.246633798689e-02       0.000000000000e+00
     -1.994010767817e-02      -2.287669245984e-02       0.000000000000e+00
     -1.806208456619e-02      -2.325193100336e-02       0.000000000000e+00
     -1.619470055160e-02      -2.359084099817e-02       0.000000000000e+00
     -1.433918385242e-02      -2.389246733373e-02       0.000000000000e+00
     -1.249650539868e-02      -2.415612678757e-02       0.000000000000e+00
     -1.066741050450e-02      -2.438141666249e-02       0.000000000000e+00
     -8.852452745591e-03      -2.456821762036e-02       0.000000000000e+00
     -7.052028831391e-03      -2.471669087052e-02       0.000000000000e+00
     -5.266413219492e-03      -2.482727000408e-02       0.000000000000e+00
     -3.495791238673e-03      -2.490064852790e-02       0.000000000000e+00
     -1.740289754273e-03      -2.493776281920e-02       0.000000000000e+00
      4.915507221248e-16      -2.493978264341e-02       0.000000000000e+00
     -6.815212930163e-02       0.000000000000e+00       0.000000000000e+00
     -6.812275745249e-02      -3.745445830486e-04       0.000000000000e+00
     -6.802172531514e-02      -7.507312328855e-04       0.000000000000e+00
     -6.784684040551e-02      -1.130530300505e-03       0.000000000000e+00
     -6.759611985663e-02      -1.516018984922e-03       0.000000000000e+00
     -6.726781783350e-02      -1.909349602857e-03       0.000000000000e+00
     -6.686044602788e-02      -2.312716595476e-03       0.000000000000e+00
     -6.637279315652e-02      -2.728320674509e-03       0.000000000000e+00
     -6.580394181882e-02      -3.158330249771e-03       0.000000000000e+00
     -6.515328267299e-02      -3.604840595916e-03       0.000000000000e+00
     -6.442052542731e-02      -4.069831391111e-03       0.000000000000e+00
     -6.360570636870e-02      -4.555123447885e-03       0.000000000000e+00
     -6.270919221247e-02      -5.062335568432e-03       0.000000000000e+00
     -6.173168018132e-02      -5.592842583316e-03       0.000000000000e+00
     -6.067419435754e-02      -6.147735725626e-03       0.000000000000e+00
     -5.953807851181e-02      -6.727786556239e-03       0.000000000000e+00
     -5.832498578777e-02      -7.333415671264e-03       0.000000000000e+00
     -5.703686579440e-02      -7.964667378708e-03       0.000000000000e+00
     -5.567594985294e-02      -8.621191411505e-03       0.000000000000e+00
     -5.424473519501e-02      -9.302232585200e-03       0.000000000000e+00
     -5.274596935496e-02      -1.000662885570e-02       0.000000000000e+00
     -5.118263469712e-02      -1.073281873416e-02       0.000000000000e+00
     -4.955793784882e-02      -1.147885488893e-02       0.000000000000e+00
     -4.787529088232e-02      -1.224243600668e-02       0.000000000000e+00
     -4.613833353666e-02      -1.302090456221e-02       0.000000000000e+00
     -4.525065669504e-02      -1.341484465873e-02       0.000000000000e+00
     -4.435085370940e-02      -1.381137276379e-02       0.000000000000e+00
     -4.344162062539e-02      -1.420916960228e-02       0.000000000000e+00
     -4.252575532772e-02      -1.460692533730e-02       0.000000000000e+00
     -4.067723473887e-02      -1.540066186211e-02       0.000000000000e+00
     -3.881098037507e-02      -1.618942296248e-02       0.000000000000e+00
     -3.693255375082e-02      -1.696985242106e-02       0.000000000000e+00
     -3.504717714894e-02      -1.773851997908e-02       0.000000000000e+00
     -3.315971978554e-02      -1.849191459409e-02       0.000000000000e+00
     -3.127462937835e-02      -1.922649337800e-02       0.000000000000e+00
     -2.939589037821e-02      -1.993872217030e-02       0.000000000000e+00
     -2.752699094364e-02      -2.062512330168e-02       0.000000000000e+00
     -2.567090359856e-02      -2.128232415113e-02       0.000000000000e+00
     -2.383007854184e-02      -2.190710590144e-02       0.000000000000e+00
     -2.200644924899e-02      -2.249645043576e-02       0.000000000000e+00
     -2.020144933926e-02      -2.304758390167e-02       0.000000000000e+00
     -1.841603939888e-02      -2.355801560895e-02       0.000000000000e+00
     -1.665074222554e-02      -2.402557123919e-02       0.000000000000e+00
     -1.490568483695e-02      -2.444841963656e-02       0.000000000000e+00
     -1.318064555251e-02      -2.482509274399e-02       0.000000000000e+00
     -1.147510449768e-02      -2.515449851912e-02       0.000000000000e+00
     -9.788295969382e-03      -2.543592690460e-02       0.000000000000e+00
     -8.119261252850e-03      -2.566904913970e-02       0.000000000000e+00
     -6.466900598156e-03      -2.585391084311e-02       0.000000000000e+00
     -4.830023371466e-03      -2.599091959885e-02       0.000000000000e+00
     -3.207395440505e-03      -2.608082733005e-02       0.000000000000e+00
     -1.597783979375e-03      -2.612470944775e-02       0.000000000000e+00
      4.806519588816e-16      -2.612393407443e-02       0.000000000000e+00
     -6.838181245440e-02       0.000000000000e+00       0.000000000000e+00
     -6.835006662669e-02      -2.964842498027e-04       0.000000000000e+00
     -6.824065256849e-02      -5.937991201269e-04       0.000000000000e+00
     -6.805145200047e-02      -8.945136116324e-04       0.000000000000e+00
     -6.778057536917e-02      -1.201320258790e-03       0.000000000000e+00
     -6.742638274913e-02      -1.517005917573e-03       0.000000000000e+00
     -6.698750575074e-02      -1.844418611314e-03       0.000000000000e+00
     -6.646286749446e-02      -2.186430979427e-03       0.000000000000e+00
     -6.585170108584e-02      -2.545900642721e-03       0.000000000000e+00
     -6.515356617573e-02      -2.925627721914e-03       0.000000000000e+00
     -6.436836332746e-02      -3.328309870669e-03       0.000000000000e+00
     -6.349634583926e-02      -3.756495307694e-03       0.000000000000e+00
     -6.253812869088e-02      -4.212534490342e-03       0.000000000000e+00
     -6.149469432013e-02      -4.698531221830e-03       0.000000000000e+00
     -6.036739499822e-02      -5.216294141450e-03       0.000000000000e+00
     -5.915795166443e-02      -5.767289691898e-03       0.000000000000e+00
     -5.786844920376e-02      -6.352597779915e-03       0.000000000000e+00
     -5.650132827977e-02      -6.972871436703e-03       0.000000000000e+00
     -5.505937404483e-02      -7.628301793662e-03       0.000000000000e+00
     -5.354570202115e-02      -8.318589741049e-03       0.000000000000e+00
     -5.196374225781e-02      -9.042925149218e-03       0.000000000000e+00
     -5.031722059468e-02      -9.799975802199e-03       0.000000000000e+00
     -4.861014430869e-02      -1.058788201399e-02       0.000000000000e+00
     -4.684676977701e-02      -1.140427572761e-02       0.000000000000e+00
     -4.503163358121e-02      -1.224625186499e-02       0.000000000000e+00
     -4.410609264322e-02      -1.267583938700e-02       0.000000000000e+00
     -4.316941060417e-02      -1.311051500677e-02       0.000000000000e+00
     -4.222514809100e-02      -1.354846478558e-02       0.000000000000e+00
     -4.127696732732e-02      -1.398786086742e-02       0.000000000000e+00
     -3.937238591955e-02      -1.486873124869e-02       0.000000000000e+00
     -3.746197548621e-02      -1.574886991374e-02       0.000000000000e+00
     -3.555173206970e-02      -1.662377913730e-02       0.000000000000e+00
     -3.364708247620e-02      -1.748891766868e-02       0.000000000000e+00
     -3.175290156361e-02      -1.833969196524e-02       0.000000000000e+00
     -2.987345317289e-02      -1.917152783816e-02       0.000000000000e+00
     -2.801236872524e-02      -1.997992266220e-02       0.000000000000e+00
     -2.617263478250e-02      -2.076050361264e-02       0.000000000000e+00
     -2.435659616821e-02      -2.150908257434e-02       0.000000000000e+00
     -2.256597177136e-02      -2.222170817810e-02       0.000000000000e+00
     -2.080188199994e-02      -2.289471301825e-02       0.000000000000e+00
     -1.906488605908e-02      -2.352475512404e-02       0.000000000000e+00
     -1.735502723016e-02      -2.410885287996e-02       0.000000000000e+00
     -1.567188427475e-02      -2.464441295162e-02       0.000000000000e+00
     -1.401462715984e-02      -2.512925104416e-02       0.000000000000e+00
     -1.238207543112e-02      -2.556160556696e-02       0.000000000000e+00
     -1.077275773504e-02      -2.594014447549e-02       0.000000000000e+00
     -9.184971192633e-03      -2.626396571121e-02       0.000000000000e+00
     -7.616839533516e-03      -2.653259175741e-02       0.000000000000e+00
     -6.066369105303e-03      -2.674595891954e-02       0.000000000000e+00
     -4.531502110362e-03      -2.690440179724e-02       0.000000000000e+00
     -3.010166396584e-03      -2.700863388784e-02       0.000000000000e+00
     -1.500321811079e-03      -2.705972315771e-02       0.000000000000e+00
      4.707732163130e-16      -2.705906942866e-02       0.000000000000e+00
     -6.857145629344e-02       0.000000000000e+00       0.000000000000e+00
     -6.853785206466e-02      -2.401375794831e-04       0.000000000000e+00
     -6.842133858627e-02      -4.809257428959e-04       0.000000000000e+00
     -6.822000216664e-02      -7.253347201394e-04       0.000000000000e+00
     -6.793216508094e-02      -9.764614871311e-04       0.000000000000e+00
     -6.755640546474e-02      -1.237499343491e-03       0.000000000000e+00
     -6.709157588663e-02      -1.511706904956e-03       0.000000000000e+00
     -6.653682207244e-02      -1.802373453779e-03       0.000000000000e+00
     -6.589160087609e-02      -2.112781468887e-03       0.000000000000e+00
     -6.515569750355e-02      -2.446166130038e-03       0.000000000000e+00
     -6.432924163776e-02      -2.805671956312e-03       0.000000000000e+00
     -6.341272216738e-02      -3.194306740048e-03       0.000000000000e+00
     -6.240700013643e-02      -3.614893080520e-03       0.000000000000e+00
     -6.131331950690e-02      -4.070017963542e-03       0.000000000000e+00
     -6.013331530796e-02      -4.561981001351e-03       0.000000000000e+00
     -5.886901875478e-02      -5.092742129250e-03       0.000000000000e+00
     -5.752285896114e-02      -5.663869739037e-03       0.000000000000e+00
     -5.609766092297e-02      -6.276490414020e-03       0.000000000000e+00
     -5.459663960191e-02      -6.931241551377e-03       0.000000000000e+00
     -5.302338984545e-02      -7.628228394109e-03       0.000000000000e+00
     -5.138187279610e-02      -8.366986553128e-03       0.000000000000e+00
     -4.967639668000e-02      -9.146453006316e-03       0.000000000000e+00
     -4.791160051253e-02      -9.964940988918e-03       0.000000000000e+00
     -4.609241126666e-02      -1.082014267375e-02       0.000000000000e+00
     -4.422408129831e-02      -1.170907382171e-02       0.000000000000e+00
     -4.327314060308e-02      -1.216513519034e-02       0.000000000000e+00
     -4.231199263923e-02      -1.262822613257e-02       0.000000000000e+00
     -4.134482519611e-02      -1.309614768671e-02       0.000000000000e+00
     -4.037591423817e-02      -1.356666055924e-02       0.000000000000e+00
     -3.843659276171e-02      -1.451269271707e-02       0.000000000000e+00
     -3.650056823982e-02      -1.546117209032e-02       0.000000000000e+00
     -3.457391076850e-02      -1.640669022989e-02       0.000000000000e+00
     -3.266195022533e-02      -1.734384289565e-02       0.000000000000e+00
     -3.076932525321e-02      -1.826721776486e-02       0.000000000000e+00
     -2.889994165133e-02      -1.917148199733e-02       0.000000000000e+00
     -2.705697428253e-02      -2.005143985109e-02       0.000000000000e+00
     -2.524287624194e-02      -2.090209444765e-02       0.000000000000e+00
     -2.345940283983e-02      -2.171870244870e-02       0.000000000000e+00
     -2.170764621778e-02      -2.249682329453e-02       0.000000000000e+00
     -1.998807920169e-02      -2.323236151610e-02       0.000000000000e+00
     -1.830060621666e-02      -2.392160189623e-02       0.000000000000e+00
     -1.664461935035e-02      -2.456123729371e-02       0.000000000000e+00
     -1.501905775571e-02      -2.514838926656e-02       0.000000000000e+00
     -1.342246880059e-02      -2.568062181412e-02       0.000000000000e+00
     -1.185306960310e-02      -2.615594871027e-02       0.000000000000e+00
     -1.030880783610e-02      -2.657283499410e-02       0.000000000000e+00
     -8.787420918801e-03      -2.693019322840e-02       0.000000000000e+00
     -7.286492926028e-03      -2.722737515254e-02       0.000000000000e+00
     -5.803508745513e-03      -2.746415929707e-02       0.000000000000e+00
     -4.335905090703e-03      -2.764073517075e-02       0.000000000000e+00
     -2.881118302632e-03      -2.775768439680e-02       0.000000000000e+00
     -1.436628207066e-03      -2.781595955502e-02       0.000000000000e+00
      4.572914845944e-16      -2.781686153120e-02       0.000000000000e+00
     -6.875050830659e-02       0.000000000000e+00       0.000000000000e+00