# vtk DataFile Version 3.0
plate_with_hole_C1_fine_02.vtk
ASCII
DATASET UNSTRUCTURED_GRID
FIELD FieldData 2
TIME 1 1 double
1.000000e+00
CYCLE 1 1 int
2
POINTS 5406 double
     -1.000000000000e+00       0.000000000000e+00       0.000000000000e+00
     -9.995953540927e-01       2.844517667730e-02       0.000000000000e+00
     -9.983631810689e-01       5.719229568730e-02       0.000000000000e+00
     -9.962769981427e-01       8.620987746099e-02       0.000000000000e+00
     -9.933116387851e-01       1.154642293271e-01       0.000000000000e+00
     -9.894434504818e-01       1.449194890232e-01       0.000000000000e+00
     -9.846504941859e-01       1.745376873325e-01       0.000000000000e+00
     -9.789127434836e-01       2.042788306347e-01       0.000000000000e+00
     -9.722122813221e-01       2.341010039415e-01       0.000000000000e+00
     -9.645334920132e-01       2.639604947428e-01       0.000000000000e+00
     -9.558632461070e-01       2.938119377116e-01       0.000000000000e+00
     -9.461910756620e-01       3.236084800151e-01       0.000000000000e+00
     -9.355093373955e-01       3.533019666601e-01       0.000000000000e+00
     -9.238133612119e-01       3.828431449647e-01       0.000000000000e+00
     -9.111015816617e-01       4.121818869061e-01       0.000000000000e+00
     -8.973756499954e-01       4.412674277526e-01       0.000000000000e+00
     -8.826405246344e-01       4.700486190524e-01       0.000000000000e+00
     -8.669045380994e-01       4.984741937379e-01       0.000000000000e+00
     -8.501794386940e-01       5.264930408106e-01       0.000000000000e+00
     -8.324804055578e-01       5.540544868173e-01       0.000000000000e+00
     -8.138260360511e-01       5.811085811149e-01       0.000000000000e+00
     -7.942383048221e-01       6.076063817582e-01       0.000000000000e+00
     -7.737424943223e-01       6.335002387370e-01       0.000000000000e+00
     -7.523670969671e-01       6.587440712457e-01       0.000000000000e+00
     -7.301436895785e-01       6.832936356858e-01       0.000000000000e+00
     -7.187246563393e-01       6.952948068049e-01       0.000000000000e+00
     -7.071067811865e-01       7.071067811865e-01       0.000000000000e+00
     -6.952948068049e-01       7.187246563393e-01       0.000000000000e+00
     -6.832936356858e-01       7.301436895785e-01       0.000000000000e+00
     -6.587440712457e-01       7.523670969671e-01       0.000000000000e+00
     -6.335002387370e-01       7.737424943223e-01       0.000000000000e+00
     -6.076063817582e-01       7.942383048221e-01       0.000000000000e+00
     -5.811085811149e-01       8.138260360511e-01       0.000000000000e+00
     -5.540544868173e-01       8.324804055578e-01       0.000000000000e+00
     -5.264930408106e-01       8.501794386940e-01       0.000000000000e+00
     -4.984741937379e-01       8.669045380994e-01       0.000000000000e+00
     -4.700486190524e-01       8.826405246344e-01       0.000000000000e+00
     -4.412674277526e-01       8.973756499954e-01       0.000000000000e+00
     -4.121818869061e-01       9.111015816617e-01       0.000000000000e+00
     -3.828431449647e-01       9.238133612119e-01       0.000000000000e+00
     -3.533019666601e-01       9.355093373955e-01       0.000000000000e+00
     -3.236084800151e-01       9.461910756620e-01       0.000000000000e+00
     -2.938119377116e-01       9.558632461070e-01       0.000000000000e+00
     -2.639604947428e-01       9.645334920132e-01       0.000000000000e+00
     -2.341010039415e-01       9.722122813221e-01       0.000000000000e+00
     -2.042788306347e-01       9.789127434836e-01       0.000000000000e+00
     -1.745376873325e-01       9.846504941859e-01       0.000000000000e+00
     -1.449194890232e-01       9.894434504818e-01       0.000000000000e+00
     -1.154642293271e-01       9.933116387851e-01       0.000000000000e+00
     -8.620987746099e-02       9.962769981427e-01       0.000000000000e+00
     -5.719229568730e-02       9.983631810689e-01       0.000000000000e+00
     -2.844517667730e-02       9.995953540927e-01       0.000000000000e+00
      0.000000000000e+00       1.000000000000e+00       0.000000000000e+00
     -1.060000000000e+00       0.000000000000e+00       0.000000000000e+00
     -1.060225046543e+00       2.981917845522e-02       0.000000000000e+00
     -1.059529889741e+00       5.996857799558e-02       0.000000000000e+00
     -1.057885344064e+00       9.041697775835e-02       0.000000000000e+00
     -1.055263637803e+00       1.211309659857e-01       0.000000000000e+00
     -1.051638620140e+00       1.520749815735e-01       0.000000000000e+00
     -1.046985969652e+00       1.832113736714e-01       0.000000000000e+00
     -1.041283402259e+00       2.145004800414e-01       0.000000000000e+00
     -1.034510876430e+00       2.459007246844e-01       0.000000000000e+00
     -1.026650793375e+00       2.773687350191e-01       0.000000000000e+00
     -1.017688189795e+00       3.088594786491e-01       0.000000000000e+00
     -1.007610920747e+00       3.403264194820e-01       0.000000000000e+00
     -9.964098300932e-01       3.717216926784e-01       0.000000000000e+00
     -9.840789060815e-01       4.029962976059e-01       0.000000000000e+00
     -9.706154196079e-01       4.341003076706e-01       0.000000000000e+00
     -9.560200428551e-01       4.649830955904e-01       0.000000000000e+00
     -9.402969461466e-01       4.955935723767e-01       0.000000000000e+00
     -9.234538710644e-01       5.258804380078e-01       0.000000000000e+00
     -9.055021781356e-01       5.557924415172e-01       0.000000000000e+00
     -8.864568676893e-01       5.852786479869e-01       0.000000000000e+00
     -8.663365728272e-01       6.142887097417e-01       0.000000000000e+00
     -8.451635238192e-01       6.427731388906e-01       0.000000000000e+00
     -8.229634836369e-01       6.706835782561e-01       0.000000000000e+00
     -7.997656547517e-01       6.979730676821e-01       0.000000000000e+00
     -7.756025577473e-01       7.245963027157e-01       0.000000000000e+00
     -7.631700676471e-01       7.376444312474e-01       0.000000000000e+00
     -7.505098827216e-01       7.505098827216e-01       0.000000000000e+00
     -7.376444312474e-01       7.631700676471e-01       0.000000000000e+00
     -7.245963027157e-01       7.756025577473e-01       0.000000000000e+00
     -6.979730676821e-01       7.997656547517e-01       0.000000000000e+00
     -6.706835782561e-01       8.229634836369e-01       0.000000000000e+00
     -6.427731388906e-01       8.451635238192e-01       0.000000000000e+00
     -6.142887097417e-01       8.663365728272e-01       0.000000000000e+00
     -5.852786479869e-01       8.864568676893e-01       0.000000000000e+00
     -5.557924415172e-01       9.055021781356e-01       0.000000000000e+00
     -5.258804380078e-01       9.234538710644e-01       0.000000000000e+00
     -4.955935723767e-01       9.402969461466e-01       0.000000000000e+00
     -4.649830955904e-01       9.560200428551e-01       0.000000000000e+00
     -4.341003076706e-01       9.706154196079e-01       0.000000000000e+00
     -4.029962976059e-01       9.840789060815e-01       0.000000000000e+00
     -3.717216926784e-01       9.964098300932e-01       0.000000000000e+00
     -3.403264194820e-01       1.007610920747e+00       0.000000000000e+00
     -3.088594786491e-01       1.017688189795e+00       0.000000000000e+00
     -2.773687350191e-01       1.026650793375e+00       0.000000000000e+00
     -2.459007246844e-01       1.034510876430e+00       0.000000000000e+00
     -2.145004800414e-01       1.041283402259e+00       0.000000000000e+00
     -1.832113736714e-01       1.046985969652e+00       0.000000000000e+00
     -1.520749815735e-01       1.051638620140e+00       0.000000000000e+00
     -1.211309659857e-01       1.055263637803e+00       0.000000000000e+00
     -9.041697775835e-02       1.057885344064e+00       0.000000000000e+00
     -5.996857799558e-02       1.059529889741e+00       0.000000000000e+00
     -2.981917845522e-02       1.060225046543e+00       0.000000000000e+00
      0.000000000000e+00       1.060000000000e+00       0.000000000000e+00
     -1.120000000000e+00       0.000000000000e+00       0.000000000000e+00
     -1.120802079578e+00       3.137115540050e-02       0.000000000000e+00
     -1.120595381118e+00       6.309118759241e-02       0.000000000000e+00
     -1.119348500822e+00       9.512866358842e-02       0.000000000000e+00
     -1.117031542457e+00       1.274499931321e-01       0.000000000000e+00
     -1.113616330060e+00       1.600194710098e-01       0.000000000000e+00
     -1.109076621681e+00       1.927993364507e-01       0.000000000000e+00
     -1.103388322161e+00       2.257498502260e-01       0.000000000000e+00
     -1.096529692814e+00       2.588293898761e-01       0.000000000000e+00
     -1.088481555734e+00       2.919945632897e-01       0.000000000000e+00
     -1.079227490372e+00       3.252003406287e-01       0.000000000000e+00
     -1.068754019974e+00       3.584002043517e-01       0.000000000000e+00
     -1.057050785440e+00       3.915463168278e-01       0.000000000000e+00
     -1.044110704183e+00       4.245897047633e-01       0.000000000000e+00
     -1.029930111638e+00       4.574804593924e-01       0.000000000000e+00
     -1.014508883170e+00       4.901679511094e-01       0.000000000000e+00
     -9.978505342983e-01       5.226010569546e-01       0.000000000000e+00
     -9.799622973350e-01       5.547283991154e-01       0.000000000000e+00
     -9.608551727904e-01       5.864985923714e-01       0.000000000000e+00
     -9.405439541867e-01       6.178604982055e-01       0.000000000000e+00
     -9.190472252310e-01       6.487634831321e-01       0.000000000000e+00
     -8.963873286570e-01       6.791576786530e-01       0.000000000000e+00
     -8.725903064199e-01       7.089942401585e-01       0.000000000000e+00
     -8.476858113195e-01       7.382256020432e-01       0.000000000000e+00
     -8.217069905302e-01       7.668057263009e-01       0.000000000000e+00
[...]
POINT_DATA 5406
VECTORS DSPL double
     -6.715394573078e-02       0.000000000000e+00       0.000000000000e+00
     -6.712749511046e-02      -6.151642878601e-04       0.000000000000e+00
     -6.704686821513e-02      -1.237004491328e-03       0.000000000000e+00
     -6.691033009618e-02      -1.864964437831e-03       0.000000000000e+00
     -6.671620095240e-02      -2.498452415593e-03       0.000000000000e+00
     -6.646288727089e-02      -3.136838839498e-03       0.000000000000e+00
     -6.614889022416e-02      -3.779450924299e-03       0.000000000000e+00
     -6.577281985732e-02      -4.425572572818e-03       0.000000000000e+00
     -6.533340730421e-02      -5.074443748216e-03       0.000000000000e+00
     -6.482951761242e-02      -5.725260684956e-03       0.000000000000e+00
     -6.426016215635e-02      -6.377176270684e-03       0.000000000000e+00
     -6.362451086017e-02      -7.029300842725e-03       0.000000000000e+00
     -6.292190397037e-02      -7.680703362757e-03       0.000000000000e+00
     -6.215186326674e-02      -8.330413032374e-03       0.000000000000e+00
     -6.131410253358e-02      -8.977421377498e-03       0.000000000000e+00
     -6.040853713053e-02      -9.620684833103e-03       0.000000000000e+00
     -5.943529249008e-02      -1.025912785591e-02       0.000000000000e+00
     -5.839471138640e-02      -1.089164657275e-02       0.000000000000e+00
     -5.728735979092e-02      -1.151711299344e-02       0.000000000000e+00
     -5.611403125239e-02      -1.213437973578e-02       0.000000000000e+00
     -5.487574939244e-02      -1.274228537777e-02       0.000000000000e+00
     -5.357376929977e-02      -1.333966000496e-02       0.000000000000e+00
     -5.220957504616e-02      -1.392533227186e-02       0.000000000000e+00
     -5.078488053167e-02      -1.449813350529e-02       0.000000000000e+00
     -4.930161784288e-02      -1.505691043129e-02       0.000000000000e+00
     -4.853868898345e-02      -1.533068553519e-02       0.000000000000e+00
     -4.776193970205e-02      -1.560052687480e-02       0.000000000000e+00
     -4.697167340337e-02      -1.586630177582e-02       0.000000000000e+00
     -4.616820202617e-02      -1.612787466936e-02       0.000000000000e+00
     -4.452295398413e-02      -1.663787197602e-02       0.000000000000e+00
     -4.282893685664e-02      -1.712949362082e-02       0.000000000000e+00
     -4.108904883967e-02      -1.760175076340e-02       0.000000000000e+00
     -3.930635194506e-02      -1.805371565312e-02       0.000000000000e+00
     -3.748404197061e-02      -1.848452428799e-02       0.000000000000e+00
     -3.562543476906e-02      -1.889338277964e-02       0.000000000000e+00
     -3.373394687864e-02      -1.927957354981e-02       0.000000000000e+00
     -3.181307651548e-02      -1.964246080379e-02       0.000000000000e+00
     -2.986638432281e-02      -1.998149533287e-02       0.000000000000e+00
     -2.789747415151e-02      -2.029621872502e-02       0.000000000000e+00
     -2.590997433438e-02      -2.058626687694e-02       0.000000000000e+00
     -2.390751976036e-02      -2.085137298789e-02       0.000000000000e+00
     -2.189373523612e-02      -2.109137005626e-02       0.000000000000e+00
     -1.987222047220e-02      -2.130619343425e-02       0.000000000000e+00
     -1.784653784674e-02      -2.149588335300e-02       0.000000000000e+00
     -1.582020198891e-02      -2.166058939423e-02       0.000000000000e+00
     -1.379667812909e-02      -2.180057655512e-02       0.000000000000e+00
     -1.177937342984e-02      -2.191623608371e-02       0.000000000000e+00
     -9.771680196971e-03      -2.200811725370e-02       0.000000000000e+00
     -7.776915069841e-03      -2.207692787246e-02       0.000000000000e+00
     -5.798666610062e-03      -2.212378336352e-02       0.000000000000e+00
     -3.840159352761e-03      -2.215007101518e-02       0.000000000000e+00
     -1.906484804902e-03      -2.215862683611e-02       0.000000000000e+00
      9.902414548130e-16      -2.215903013346e-02       0.000000000000e+00
     -6.760604337548e-02       0.000000000000e+00       0.000000000000e+00
     -6.757878981609e-02      -4.662229873375e-04       0.000000000000e+00
     -6.748734395170e-02      -9.357200334746e-04       0.000000000000e+00
     -6.732960248884e-02      -1.409512509049e-03       0.000000000000e+00
     -6.710364305334e-02      -1.888671307324e-03       0.000000000000e+00
     -6.680773811543e-02      -2.374297835462e-03       0.000000000000e+00
     -6.644037379588e-02      -2.867499598599e-03       0.000000000000e+00
     -6.600026652174e-02      -3.369362966104e-03       0.000000000000e+00
     -6.548637738612e-02      -3.880924006462e-03       0.000000000000e+00
     -6.489792357281e-02      -4.403138138832e-03       0.000000000000e+00
     -6.423438658860e-02      -4.936849469001e-03       0.000000000000e+00
     -6.349551715202e-02      -5.482760651921e-03       0.000000000000e+00
     -6.268133671007e-02      -6.041404215772e-03       0.000000000000e+00
     -6.179213569566e-02      -6.613116307250e-03       0.000000000000e+00
     -6.082846878387e-02      -7.198013823833e-03       0.000000000000e+00
     -5.979114755634e-02      -7.795975855561e-03       0.000000000000e+00
     -5.868123112877e-02      -8.406630267667e-03       0.000000000000e+00
     -5.750001541865e-02      -9.029346110392e-03       0.000000000000e+00
     -5.624902184383e-02      -9.663232347577e-03       0.000000000000e+00
     -5.492998623886e-02      -1.030714314132e-02       0.000000000000e+00
     -5.354484897074e-02      -1.095968965761e-02       0.000000000000e+00
     -5.209574651653e-02      -1.161925810577e-02       0.000000000000e+00
     -5.058500674010e-02      -1.228403263498e-02       0.000000000000e+00
     -4.901514315941e-02      -1.295202652195e-02       0.000000000000e+00
     -4.738886449910e-02      -1.362109698646e-02       0.000000000000e+00
     -4.655546065112e-02      -1.395535683905e-02       0.000000000000e+00
     -4.570905126267e-02      -1.428902790389e-02       0.000000000000e+00
     -4.485123437483e-02      -1.462138717429e-02       0.000000000000e+00
     -4.398368408608e-02      -1.495173230375e-02       0.000000000000e+00
     -4.222177776941e-02      -1.560534868159e-02       0.000000000000e+00
     -4.042789666846e-02      -1.624787214479e-02       0.000000000000e+00
     -3.860665402597e-02      -1.687718916070e-02       0.000000000000e+00
     -3.676258644852e-02      -1.749113094643e-02       0.000000000000e+00
     -3.490011899313e-02      -1.808747070460e-02       0.000000000000e+00
     -3.302350813170e-02      -1.866394700869e-02       0.000000000000e+00
     -3.113679429732e-02      -1.921828744222e-02       0.000000000000e+00
     -2.924376085604e-02      -1.974823806311e-02       0.000000000000e+00
     -2.734790110046e-02      -2.025159602208e-02       0.000000000000e+00
     -2.545239414208e-02      -2.072624443704e-02       0.000000000000e+00
     -2.356008999058e-02      -2.117018812850e-02       0.000000000000e+00
     -2.167350379132e-02      -2.158158895897e-02       0.000000000000e+00
     -1.979481878584e-02      -2.195879967686e-02       0.000000000000e+00
     -1.792589717274e-02      -2.230039541051e-02       0.000000000000e+00
     -1.606829792997e-02      -2.260520234140e-02       0.000000000000e+00
     -1.422329955513e-02      -2.287232423560e-02       0.000000000000e+00
     -1.239192853139e-02      -2.310116511269e-02       0.000000000000e+00
     -1.057498208087e-02      -2.329146439170e-02       0.000000000000e+00
     -8.773075002517e-03      -2.344329125935e-02       0.000000000000e+00
     -6.986598819342e-03      -2.355725138343e-02       0.000000000000e+00
     -5.215926776256e-03      -2.363397307894e-02       0.000000000000e+00
     -3.460908734925e-03      -2.367658393331e-02       0.000000000000e+00
     -1.722228142550e-03      -2.368224851030e-02       0.000000000000e+00
      9.756657445973e-16      -2.367443545215e-02       0.000000000000e+00
     -6.790919302883e-02       0.000000000000e+00       0.000000000000e+00
     -6.787965208868e-02      -3.594878735369e-04       0.000000000000e+00
     -6.777852269004e-02      -7.204990928313e-04       0.000000000000e+00
     -6.760361836977e-02      -1.084981708209e-03       0.000000000000e+00
     -6.735296270630e-02      -1.454989304427e-03       0.000000000000e+00
     -6.702481671197e-02      -1.832649315321e-03       0.000000000000e+00
     -6.661769936453e-02      -2.220130078745e-03       0.000000000000e+00
     -6.613040713016e-02      -2.619605038268e-03       0.000000000000e+00
     -6.556203084931e-02      -3.033214240609e-03       0.000000000000e+00
     -6.491196994127e-02      -3.463023587946e-03       0.000000000000e+00
     -6.417994342682e-02      -3.910982479289e-03       0.000000000000e+00
     -6.336599749192e-02      -4.378880661734e-03       0.000000000000e+00
     -6.247050937846e-02      -4.868305224028e-03       0.000000000000e+00
     -6.149418751140e-02      -5.380598790822e-03       0.000000000000e+00
     -6.043806790854e-02      -5.916820068161e-03       0.000000000000e+00
     -5.930350707778e-02      -6.477707953217e-03       0.000000000000e+00
     -5.809217178261e-02      -7.063650435341e-03       0.000000000000e+00
     -5.680602622870e-02      -7.674659470115e-03       0.000000000000e+00
     -5.544731741803e-02      -8.310352885979e-03       0.000000000000e+00
     -5.401855946474e-02      -8.969944225307e-03       0.000000000000e+00
     -5.252251811495e-02      -9.652240957664e-03       0.000000000000e+00
     -5.096219538957e-02      -1.035565204200e-02       0.000000000000e+00
     -4.934081917574e-02      -1.107820154007e-02       0.000000000000e+00
     -4.766182432457e-02      -1.181756080259e-02       0.000000000000e+00
     -4.592887562609e-02      -1.257104503679e-02       0.000000000000e+00
     -4.504334443869e-02      -1.295219993976e-02       0.000000000000e+00
     -4.414578647765e-02      -1.333574228015e-02       0.000000000000e+00
     -4.323889502536e-02      -1.372038138076e-02       0.000000000000e+00
     -4.232546411466e-02      -1.410483634793e-02       0.000000000000e+00
     -4.048209445789e-02      -1.487152972874e-02       0.000000000000e+00
     -3.862137001801e-02      -1.563264531757e-02       0.000000000000e+00
     -3.674885322532e-02      -1.638480757025e-02       0.000000000000e+00
     -3.486976338561e-02      -1.712456889363e-02       0.000000000000e+00
     -3.298896339233e-02      -1.784840224187e-02       0.000000000000e+00
     -3.111089146410e-02      -1.855275100655e-02       0.000000000000e+00
     -2.923951973201e-02      -1.923407011396e-02       0.000000000000e+00
     -2.737832153035e-02      -1.988887451850e-02       0.000000000000e+00
     -2.553025234150e-02      -2.051378855856e-02       0.000000000000e+00
     -2.369774328683e-02      -2.110559570354e-02       0.000000000000e+00
     -2.188270674031e-02      -2.166128672490e-02       0.000000000000e+00
     -2.008655294574e-02      -2.217810499361e-02       0.000000000000e+00
     -1.831021625077e-02      -2.265358778304e-02       0.000000000000e+00
     -1.655418925851e-02      -2.308560303651e-02       0.000000000000e+00
     -1.481856336214e-02      -2.347238097682e-02       0.000000000000e+00
     -1.310307336185e-02      -2.381254256886e-02       0.000000000000e+00
     -1.140714682905e-02      -2.410511936675e-02       0.000000000000e+00
     -9.729951394628e-03      -2.434959118792e-02       0.000000000000e+00
     -8.070461943132e-03      -2.454584571139e-02       0.000000000000e+00
     -6.427489509582e-03      -2.469443777925e-02       0.000000000000e+00
     -4.799892763239e-03      -2.479567229112e-02       0.000000000000e+00
     -3.186391166233e-03      -2.485307907132e-02       0.000000000000e+00
     -1.586736322902e-03      -2.485975361459e-02       0.000000000000e+00
      9.810863903625e-16      -2.484786638910e-02       0.000000000000e+00
     -6.813077884280e-02       0.000000000000e+00       0.000000000000e+00
     -6.809888141706e-02      -2.825284343471e-04       0.000000000000e+00
     -6.798944476601e-02      -5.658076191910e-04       0.000000000000e+00
     -6.780035893067e-02      -8.523794681848e-04       0.000000000000e+00
     -6.752974303473e-02      -1.144907812326e-03       0.000000000000e+00
     -6.717596618772e-02      -1.446149205770e-03       0.000000000000e+00
     -6.673766940403e-02      -1.758919814574e-03       0.000000000000e+00
     -6.621378558876e-02      -2.086058919513e-03       0.000000000000e+00
     -6.560355802790e-02      -2.430389349074e-03       0.000000000000e+00
     -6.490655696574e-02      -2.794675079684e-03       0.000000000000e+00
     -6.412269399185e-02      -3.181576365403e-03       0.000000000000e+00
     -6.325223388608e-02      -3.593602882123e-03       0.000000000000e+00
     -6.229580359106e-02      -4.033065528822e-03       0.000000000000e+00
     -6.125439801800e-02      -4.502027677653e-03       0.000000000000e+00
     -6.012938245506e-02      -5.002256821288e-03       0.000000000000e+00
     -5.892249143850e-02      -5.535177709938e-03       0.000000000000e+00
     -5.763582406945e-02      -6.101828191608e-03       0.000000000000e+00
     -5.627183588713e-02      -6.702819058457e-03       0.000000000000e+00
     -5.483332761738e-02      -7.338299209456e-03       0.000000000000e+00
     -5.332343108557e-02      -8.007927492967e-03       0.000000000000e+00
     -5.174559339137e-02      -8.710852093788e-03       0.000000000000e+00
     -5.010355816200e-02      -9.445699639771e-03       0.000000000000e+00
     -4.840135117196e-02      -1.021056985770e-02       0.000000000000e+00
     -4.664324778711e-02      -1.100305511201e-02       0.000000000000e+00
     -4.483380439498e-02      -1.182021041907e-02       0.000000000000e+00
     -4.391127364923e-02      -1.223703450971e-02       0.000000000000e+00
     -4.297771478098e-02      -1.265870383297e-02       0.000000000000e+00
     -4.203667993776e-02      -1.308344128782e-02       0.000000000000e+00
     -4.109182138625e-02      -1.350945669339e-02       0.000000000000e+00
     -3.919416186141e-02      -1.436304641076e-02       0.000000000000e+00
     -3.729103033448e-02      -1.521519623161e-02       0.000000000000e+00
     -3.538840247326e-02      -1.606138735853e-02       0.000000000000e+00
     -3.349167935153e-02      -1.689706077587e-02       0.000000000000e+00
     -3.160570510393e-02      -1.771760797710e-02       0.000000000000e+00
     -2.973470813508e-02      -1.851844371946e-02       0.000000000000e+00
     -2.788228007905e-02      -1.929505894346e-02       0.000000000000e+00
     -2.605136367454e-02      -2.004307993107e-02       0.000000000000e+00
     -2.424425614682e-02      -2.075832424317e-02       0.000000000000e+00
     -2.246262517255e-02      -2.143685401256e-02       0.000000000000e+00
     -2.070753637377e-02      -2.207502473720e-02       0.000000000000e+00
     -1.897949051460e-02      -2.266952878927e-02       0.000000000000e+00
     -1.727846862890e-02      -2.321743296910e-02       0.000000000000e+00
     -1.560398332177e-02      -2.371620996352e-02       0.000000000000e+00
     -1.395513483526e-02      -2.416376318476e-02       0.000000000000e+00
     -1.233067044589e-02      -2.455844711335e-02       0.000000000000e+00
     -1.072904815495e-02      -2.489907501526e-02       0.000000000000e+00
     -9.148500520581e-03      -2.518494406552e-02       0.000000000000e+00
     -7.587116502680e-03      -2.541575513769e-02       0.000000000000e+00
     -6.042892648554e-03      -2.559187506625e-02       0.000000000000e+00
     -4.513910473890e-03      -2.571319075398e-02       0.000000000000e+00
     -2.998175020506e-03      -2.578310134011e-02       0.000000000000e+00
     -1.494245191114e-03      -2.579285206329e-02       0.000000000000e+00
      9.590501577870e-16      -2.577966476059e-02       0.000000000000e+00
     -6.831463493394e-02       0.000000000000e+00       0.000000000000e+00
     -6.828092810581e-02      -2.271263686409e-04       0.000000000000e+00
     -6.816449158576e-02      -4.548570823511e-04       0.000000000000e+00
     -6.796342141191e-02      -6.861314156097e-04       0.000000000000e+00
     -6.767604996332e-02      -9.240134965012e-04       0.000000000000e+00
     -6.730096582026e-02      -1.171661917699e-03       0.000000000000e+00
     -6.683703234425e-02      -1.432298763249e-03       0.000000000000e+00
     -6.628340639809e-02      -1.709175008061e-03       0.000000000000e+00
     -6.563955631689e-02      -2.005533108321e-03       0.000000000000e+00
     -6.490527913157e-02      -2.324566578628e-03       0.000000000000e+00
     -6.408071669339e-02      -2.669376716097e-03       0.000000000000e+00
     -6.316637040133e-02      -3.042926632908e-03       0.000000000000e+00
     -6.216311414831e-02      -3.447992901738e-03       0.000000000000e+00
     -6.107220507713e-02      -3.887115260230e-03       0.000000000000e+00
     -5.989529171806e-02      -4.362544988614e-03       0.000000000000e+00
     -5.863441908877e-02      -4.876192756400e-03       0.000000000000e+00
     -5.729203037785e-02      -5.429576917209e-03       0.000000000000e+00
     -5.587096488485e-02      -6.023773415291e-03       0.000000000000e+00
     -5.437445204025e-02      -6.659368587030e-03       0.000000000000e+00
     -5.280610123495e-02      -7.336416379861e-03       0.000000000000e+00
     -5.116988809972e-02      -8.054401056990e-03       0.000000000000e+00
     -4.947013511367e-02      -8.812208411128e-03       0.000000000000e+00
     -4.771149506524e-02      -9.608100747590e-03       0.000000000000e+00
     -4.589890782706e-02      -1.043972014434e-02       0.000000000000e+00
     -4.403763760336e-02      -1.130403175336e-02       0.000000000000e+00
     -4.309040126763e-02      -1.174738034806e-02       0.000000000000e+00
     -4.213307577625e-02      -1.219748043847e-02       0.000000000000e+00
     -4.116983471613e-02      -1.265217549276e-02       0.000000000000e+00
     -4.020493813362e-02      -1.310926999291e-02       0.000000000000e+00
     -3.827389326811e-02      -1.402787577165e-02       0.000000000000e+00
     -3.634644804569e-02      -1.494812758894e-02       0.000000000000e+00
     -3.442863276790e-02      -1.586459818214e-02       0.000000000000e+00
     -3.252573190482e-02      -1.677186922268e-02       0.000000000000e+00
     -3.064233330649e-02      -1.766451860649e-02       0.000000000000e+00
     -2.878228712280e-02      -1.853720916731e-02       0.000000000000e+00
     -2.694870823008e-02      -1.938474703697e-02       0.000000000000e+00
     -2.514398592161e-02      -2.020214436044e-02       0.000000000000e+00
     -2.336980840429e-02      -2.098467500788e-02       0.000000000000e+00
     -2.162719792175e-02      -2.172792503671e-02       0.000000000000e+00
     -1.991655514228e-02      -2.242783645449e-02       0.000000000000e+00
     -1.823771070664e-02      -2.308074411979e-02       0.000000000000e+00
     -1.658998216974e-02      -2.368340556420e-02       0.000000000000e+00
     -1.497223472480e-02      -2.423302396252e-02       0.000000000000e+00
     -1.338294456953e-02      -2.472726374273e-02       0.000000000000e+00
     -1.182026374686e-02      -2.516426104656e-02       0.000000000000e+00
     -1.028208703376e-02      -2.554261975797e-02       0.000000000000e+00
     -8.766117086390e-03      -2.586142524252e-02       0.000000000000e+00
     -7.269939092111e-03      -2.612014488733e-02       0.000000000000e+00
     -5.791063769626e-03      -2.631890062843e-02       0.000000000000e+00
     -4.327057163632e-03      -2.645725414136e-02       0.000000000000e+00
     -2.875374647387e-03      -2.653852557354e-02       0.000000000000e+00
     -1.433917078597e-03      -2.655321905937e-02       0.000000000000e+00
      9.657706250616e-16      -2.654068991515e-02       0.000000000000e+00
     -6.848981766189e-02       0.000000000000e+00       0.000000000000e+00