# vtk DataFile Version 3.0
tension_beam_2_materials_C1_VUKIMS_02.vtk
ASCII
DATASET UNSTRUCTURED_GRID
FIELD FieldData 2
TIME 1 1 double
1.000000e+00
CYCLE 1 1 int
2
POINTS 1352 double
      0.000000000000e+00       0.000000000000e+00       0.000000000000e+00
      4.000000000000e-01       0.000000000000e+00       0.000000000000e+00
      8.000000000000e-01       0.000000000000e+00       0.000000000000e+00
      1.200000000000e+00       0.000000000000e+00       0.000000000000e+00
      1.600000000000e+00       0.000000000000e+00       0.000000000000e+00
      2.000000000000e+00       0.000000000000e+00       0.000000000000e+00
      2.400000000000e+00       0.000000000000e+00       0.000000000000e+00
      2.800000000000e+00       0.000000000000e+00       0.000000000000e+00
      3.200000000000e+00       0.000000000000e+00       0.000000000000e+00
      3.600000000000e+00       0.000000000000e+00       0.000000000000e+00
      4.000000000000e+00       0.000000000000e+00       0.000000000000e+00
      4.400000000000e+00       0.000000000000e+00       0.000000000000e+00
      4.800000000000e+00       0.000000000000e+00       0.000000000000e+00
      5.200000000000e+00       0.000000000000e+00       0.000000000000e+00
      5.600000000000e+00       0.000000000000e+00       0.000000000000e+00
      6.000000000000e+00       0.000000000000e+00       0.000000000000e+00
      6.400000000000e+00       0.000000000000e+00       0.000000000000e+00
      6.800000000000e+00       0.000000000000e+00       0.000000000000e+00
      7.200000000000e+00       0.000000000000e+00       0.000000000000e+00
      7.600000000000e+00       0.000000000000e+00       0.000000000000e+00
      8.000000000000e+00       0.000000000000e+00       0.000000000000e+00
      8.400000000000e+00       0.000000000000e+00       0.000000000000e+00
      8.800000000000e+00       0.000000000000e+00       0.000000000000e+00
      9.200000000000e+00       0.000000000000e+00       0.000000000000e+00
      9.600000000000e+00       0.000000000000e+00       0.000000000000e+00
      1.000000000000e+01       0.000000000000e+00       0.000000000000e+00
      0.000000000000e+00       8.000000000000e-02       0.000000000000e+00
      4.000000000000e-01       8.000000000000e-02       0.000000000000e+00
      8.000000000000e-01       8.000000000000e-02       0.000000000000e+00
      1.200000000000e+00       8.000000000000e-02       0.000000000000e+00
      1.600000000000e+00       8.000000000000e-02       0.000000000000e+00
      2.000000000000e+00       8.000000000000e-02       0.000000000000e+00
      2.400000000000e+00       8.000000000000e-02       0.000000000000e+00
      2.800000000000e+00       8.000000000000e-02       0.000000000000e+00
      3.200000000000e+00       8.000000000000e-02       0.000000000000e+00
      3.600000000000e+00       8.000000000000e-02       0.000000000000e+00
      4.000000000000e+00       8.000000000000e-02       0.000000000000e+00
      4.400000000000e+00       8.000000000000e-02       0.000000000000e+00
      4.800000000000e+00       8.000000000000e-02       0.000000000000e+00
      5.200000000000e+00       8.000000000000e-02       0.000000000000e+00
      5.600000000000e+00       8.000000000000e-02       0.000000000000e+00
      6.000000000000e+00       8.000000000000e-02       0.000000000000e+00
      6.400000000000e+00       8.000000000000e-02       0.000000000000e+00
      6.800000000000e+00       8.000000000000e-02       0.000000000000e+00
      7.200000000000e+00       8.000000000000e-02       0.000000000000e+00
      7.600000000000e+00       8.000000000000e-02       0.000000000000e+00
      8.000000000000e+00       8.000000000000e-02       0.000000000000e+00
      8.400000000000e+00       8.000000000000e-02       0.000000000000e+00
      8.800000000000e+00       8.000000000000e-02       0.000000000000e+00
      9.200000000000e+00       8.000000000000e-02       0.000000000000e+00
      9.600000000000e+00       8.000000000000e-02       0.000000000000e+00
      1.000000000000e+01       8.000000000000e-02       0.000000000000e+00
      0.000000000000e+00       1.600000000000e-01       0.000000000000e+00
      4.000000000000e-01       1.600000000000e-01       0.000000000000e+00
      8.000000000000e-01       1.600000000000e-01       0.000000000000e+00
      1.200000000000e+00       1.600000000000e-01       0.000000000000e+00
      1.600000000000e+00       1.600000000000e-01       0.000000000000e+00
      2.000000000000e+00       1.600000000000e-01       0.000000000000e+00
      2.400000000000e+00       1.600000000000e-01       0.000000000000e+00
      2.800000000000e+00       1.600000000000e-01       0.000000000000e+00
      3.200000000000e+00       1.600000000000e-01       0.000000000000e+00
      3.600000000000e+00       1.600000000000e-01       0.000000000000e+00
      4.000000000000e+00       1.600000000000e-01       0.000000000000e+00
      4.400000000000e+00       1.600000000000e-01       0.000000000000e+00
      4.800000000000e+00       1.600000000000e-01       0.000000000000e+00
      5.200000000000e+00       1.600000000000e-01       0.000000000000e+00
      5.600000000000e+00       1.600000000000e-01       0.000000000000e+00
      6.000000000000e+00       1.600000000000e-01       0.000000000000e+00
      6.400000000000e+00       1.600000000000e-01       0.000000000000e+00
      6.800000000000e+00       1.600000000000e-01       0.000000000000e+00
      7.200000000000e+00       1.600000000000e-01       0.000000000000e+00
      7.600000000000e+00       1.600000000000e-01       0.000000000000e+00
      8.000000000000e+00       1.600000000000e-01       0.000000000000e+00
      8.400000000000e+00       1.600000000000e-01       0.000000000000e+00
      8.800000000000e+00       1.600000000000e-01       0.000000000000e+00
      9.200000000000e+00       1.600000000000e-01       0.000000000000e+00
      9.600000000000e+00       1.600000000000e-01       0.000000000000e+00
      1.000000000000e+01       1.600000000000e-01       0.000000000000e+00
      0.000000000000e+00       2.400000000000e-01       0.000000000000e+00
      4.000000000000e-01       2.400000000000e-01       0.000000000000e+00
      8.000000000000e-01       2.400000000000e-01       0.000000000000e+00
      1.200000000000e+00       2.400000000000e-01       0.000000000000e+00
      1.600000000000e+00       2.400000000000e-01       0.000000000000e+00
      2.000000000000e+00       2.400000000000e-01       0.000000000000e+00
      2.400000000000e+00       2.400000000000e-01       0.000000000000e+00
      2.800000000000e+00       2.400000000000e-01       0.000000000000e+00
      3.200000000000e+00       2.400000000000e-01       0.000000000000e+00
      3.600000000000e+00       2.400000000000e-01       0.000000000000e+00
      4.000000000000e+00       2.400000000000e-01       0.000000000000e+00
      4.400000000000e+00       2.400000000000e-01       0.000000000000e+00
      4.800000000000e+00       2.400000000000e-01       0.000000000000e+00
      5.200000000000e+00       2.400000000000e-01       0.000000000000e+00
      5.600000000000e+00       2.400000000000e-01       0.000000000000e+00
      6.000000000000e+00       2.400000000000e-01       0.000000000000e+00
      6.400000000000e+00       2.400000000000e-01       0.000000000000e+00
      6.800000000000e+00       2.400000000000e-01       0.000000000000e+00
      7.200000000000e+00       2.400000000000e-01       0.000000000000e+00
      7.600000000000e+00       2.400000000000e-01       0.000000000000e+00
      8.000000000000e+00       2.400000000000e-01       0.000000000000e+00
      8.400000000000e+00       2.400000000000e-01       0.000000000000e+00
      8.800000000000e+00       2.400000000000e-01       0.000000000000e+00
      9.200000000000e+00       2.400000000000e-01       0.000000000000e+00
      9.600000000000e+00       2.400000000000e-01       0.000000000000e+00
      1.000000000000e+01       2.400000000000e-01       0.000000000000e+00
      0.000000000000e+00       3.200000000000e-01       0.000000000000e+00
      4.000000000000e-01       3.200000000000e-01       0.000000000000e+00
      8.000000000000e-01       3.200000000000e-01       0.000000000000e+00
      1.200000000000e+00       3.200000000000e-01       0.000000000000e+00
      1.600000000000e+00       3.200000000000e-01       0.000000000000e+00
      2.000000000000e+00       3.200000000000e-01       0.000000000000e+00
      2.400000000000e+00       3.200000000000e-01       0.000000000000e+00
      2.800000000000e+00       3.200000000000e-01       0.000000000000e+00
      3.200000000000e+00       3.200000000000e-01       0.000000000000e+00
      3.600000000000e+00       3.200000000000e-01       0.000000000000e+00
      4.000000000000e+00       3.200000000000e-01       0.000000000000e+00
      4.400000000000e+00       3.200000000000e-01       0.000000000000e+00
      4.800000000000e+00       3.200000000000e-01       0.000000000000e+00
      5.200000000000e+00       3.200000000000e-01       0.000000000000e+00
      5.600000000000e+00       3.200000000000e-01       0.000000000000e+00
      6.000000000000e+00       3.200000000000e-01       0.000000000000e+00
      6.400000000000e+00       3.200000000000e-01       0.000000000000e+00
      6.800000000000e+00       3.200000000000e-01       0.000000000000e+00
      7.200000000000e+00       3.200000000000e-01       0.000000000000e+00
      7.600000000000e+00       3.200000000000e-01       0.000000000000e+00
      8.000000000000e+00       3.200000000000e-01       0.000000000000e+00
      8.400000000000e+00       3.200000000000e-01       0.000000000000e+00
      8.800000000000e+00       3.200000000000e-01       0.000000000000e+00
      9.200000000000e+00       3.200000000000e-01       0.000000000000e+00
      9.600000000000e+00       3.200000000000e-01       0.000000000000e+00
      1.000000000000e+01       3.200000000000e-01       0.000000000000e+00
[...]
POINT_DATA 1352
VECTORS DSPL double
      0.000000000000e+00       0.000000000000e+00       0.000000000000e+00
      4.244897959182e-05       0.000000000000e+00       0.000000000000e+00
      8.489795918365e-05       0.000000000000e+00       0.000000000000e+00
      1.273469387755e-04       0.000000000000e+00       0.000000000000e+00
      1.697959183673e-04       0.000000000000e+00       0.000000000000e+00
      2.122448979591e-04       0.000000000000e+00       0.000000000000e+00
      2.546938775509e-04       0.000000000000e+00       0.000000000000e+00
      2.971428571423e-04       0.000000000000e+00       0.000000000000e+00
      3.395918367368e-04       0.000000000000e+00       0.000000000000e+00
      3.820408163180e-04       0.000000000000e+00       0.000000000000e+00
      4.244897959502e-04       0.000000000000e+00       0.000000000000e+00
      4.669387753893e-04       0.000000000000e+00       0.000000000000e+00
      5.093877555522e-04       0.000000000000e+00       0.000000000000e+00
      5.518367330160e-04       0.000000000000e+00       0.000000000000e+00
      5.942857205499e-04       0.000000000000e+00       0.000000000000e+00
      6.367346704996e-04       0.000000000000e+00       0.000000000000e+00
      6.791837607159e-04       0.000000000000e+00       0.000000000000e+00
      7.216323274521e-04       0.000000000000e+00       0.000000000000e+00
      7.640828478417e-04       0.000000000000e+00       0.000000000000e+00
      8.065260770982e-04       0.000000000000e+00       0.000000000000e+00
      8.489965172345e-04       0.000000000000e+00       0.000000000000e+00
      8.913654049820e-04       0.000000000000e+00       0.000000000000e+00
      9.341132914056e-04       0.000000000000e+00       0.000000000000e+00
      9.754467355165e-04       0.000000000000e+00       0.000000000000e+00
      1.022058950202e-03       0.000000000000e+00       0.000000000000e+00
      1.048970524899e-03       0.000000000000e+00       0.000000000000e+00
      0.000000000000e+00       0.000000000000e+00       0.000000000000e+00
      4.244897959182e-05       0.000000000000e+00       0.000000000000e+00
      8.489795918365e-05       0.000000000000e+00       0.000000000000e+00
      1.273469387755e-04       0.000000000000e+00       0.000000000000e+00
      1.697959183673e-04       0.000000000000e+00       0.000000000000e+00
      2.122448979591e-04       0.000000000000e+00       0.000000000000e+00
      2.546938775514e-04       0.000000000000e+00       0.000000000000e+00
      2.971428571423e-04       0.000000000000e+00       0.000000000000e+00
      3.395918367368e-04       0.000000000000e+00       0.000000000000e+00
      3.820408163180e-04       0.000000000000e+00       0.000000000000e+00
      4.244897959502e-04       0.000000000000e+00       0.000000000000e+00
      4.669387753893e-04       0.000000000000e+00       0.000000000000e+00
      5.093877555522e-04       0.000000000000e+00       0.000000000000e+00
      5.518367330160e-04       0.000000000000e+00       0.000000000000e+00
      5.942857205508e-04       0.000000000000e+00       0.000000000000e+00
      6.367346704996e-04       0.000000000000e+00       0.000000000000e+00
      6.791837607159e-04       0.000000000000e+00       0.000000000000e+00
      7.216323274521e-04       0.000000000000e+00       0.000000000000e+00
      7.640828478417e-04       0.000000000000e+00       0.000000000000e+00
      8.065260770982e-04       0.000000000000e+00       0.000000000000e+00
      8.489965172362e-04       0.000000000000e+00       0.000000000000e+00
      8.913654049820e-04       0.000000000000e+00       0.000000000000e+00
      9.341132914056e-04       0.000000000000e+00       0.000000000000e+00
      9.754467355148e-04       0.000000000000e+00       0.000000000000e+00
      1.022058950202e-03       0.000000000000e+00       0.000000000000e+00
      1.048970524899e-03       0.000000000000e+00       0.000000000000e+00
      0.000000000000e+00       0.000000000000e+00       0.000000000000e+00
      4.244897959182e-05       0.000000000000e+00       0.000000000000e+00
      8.489795918365e-05       0.000000000000e+00       0.000000000000e+00
      1.273469387755e-04       0.000000000000e+00       0.000000000000e+00
      1.697959183673e-04       0.000000000000e+00       0.000000000000e+00
      2.122448979591e-04       0.000000000000e+00       0.000000000000e+00
      2.546938775509e-04       0.000000000000e+00       0.000000000000e+00
      2.971428571419e-04       0.000000000000e+00       0.000000000000e+00
      3.395918367364e-04       0.000000000000e+00       0.000000000000e+00
      3.820408163180e-04       0.000000000000e+00       0.000000000000e+00
      4.244897959502e-04       0.000000000000e+00       0.000000000000e+00
      4.669387753902e-04       0.000000000000e+00       0.000000000000e+00
      5.093877555531e-04       0.000000000000e+00       0.000000000000e+00
      5.518367330151e-04       0.000000000000e+00       0.000000000000e+00
      5.942857205499e-04       0.000000000000e+00       0.000000000000e+00
      6.367346705005e-04       0.000000000000e+00       0.000000000000e+00
      6.791837607150e-04       0.000000000000e+00       0.000000000000e+00
      7.216323274521e-04       0.000000000000e+00       0.000000000000e+00
      7.640828478426e-04       0.000000000000e+00       0.000000000000e+00
      8.065260770982e-04       0.000000000000e+00       0.000000000000e+00
      8.489965172362e-04       0.000000000000e+00       0.000000000000e+00
      8.913654049820e-04       0.000000000000e+00       0.000000000000e+00
      9.341132914056e-04       0.000000000000e+00       0.000000000000e+00
      9.754467355165e-04       0.000000000000e+00       0.000000000000e+00
      1.022058950202e-03       0.000000000000e+00       0.000000000000e+00
      1.048970524899e-03       0.000000000000e+00       0.000000000000e+00
      0.000000000000e+00       0.000000000000e+00       0.000000000000e+00
      4.244897959182e-05       0.000000000000e+00       0.000000000000e+00
      8.489795918365e-05       0.000000000000e+00       0.000000000000e+00
      1.273469387755e-04       0.000000000000e+00       0.000000000000e+00
      1.697959183673e-04       0.000000000000e+00       0.000000000000e+00
      2.122448979591e-04       0.000000000000e+00       0.000000000000e+00
      2.546938775514e-04       0.000000000000e+00       0.000000000000e+00
      2.971428571419e-04       0.000000000000e+00       0.000000000000e+00
      3.395918367364e-04       0.000000000000e+00       0.000000000000e+00
      3.820408163180e-04       0.000000000000e+00       0.000000000000e+00
      4.244897959502e-04       0.000000000000e+00       0.000000000000e+00
      4.669387753893e-04       0.000000000000e+00       0.000000000000e+00
      5.093877555522e-04       0.000000000000e+00       0.000000000000e+00
      5.518367330160e-04       0.000000000000e+00       0.000000000000e+00
      5.942857205499e-04       0.000000000000e+00       0.000000000000e+00
      6.367346704996e-04       0.000000000000e+00       0.000000000000e+00
      6.791837607167e-04       0.000000000000e+00       0.000000000000e+00
      7.216323274513e-04       0.000000000000e+00       0.000000000000e+00
      7.640828478426e-04       0.000000000000e+00       0.000000000000e+00
      8.065260770991e-04       0.000000000000e+00       0.000000000000e+00
      8.489965172345e-04       0.000000000000e+00       0.000000000000e+00
      8.913654049838e-04       0.000000000000e+00       0.000000000000e+00
      9.341132914056e-04       0.000000000000e+00       0.000000000000e+00
      9.754467355165e-04       0.000000000000e+00       0.000000000000e+00
      1.022058950202e-03       0.000000000000e+00       0.000000000000e+00
      1.048970524899e-03       0.000000000000e+00       0.000000000000e+00
      0.000000000000e+00       0.000000000000e+00       0.000000000000e+00
      4.244897959182e-05       0.000000000000e+00       0.000000000000e+00
      8.489795918365e-05       0.000000000000e+00       0.000000000000e+00
      1.273469387755e-04       0.000000000000e+00       0.000000000000e+00
      1.697959183673e-04       0.000000000000e+00       0.000000000000e+00
      2.122448979591e-04       0.000000000000e+00       0.000000000000e+00
      2.546938775509e-04       0.000000000000e+00       0.000000000000e+00
      2.971428571423e-04       0.000000000000e+00       0.000000000000e+00
      3.395918367373e-04       0.000000000000e+00       0.000000000000e+00
      3.820408163180e-04       0.000000000000e+00       0.000000000000e+00
      4.244897959502e-04       0.000000000000e+00       0.000000000000e+00
      4.669387753893e-04       0.000000000000e+00       0.000000000000e+00
      5.093877555513e-04       0.000000000000e+00       0.000000000000e+00
      5.518367330151e-04       0.000000000000e+00       0.000000000000e+00
      5.942857205499e-04       0.000000000000e+00       0.000000000000e+00
      6.367346704996e-04       0.000000000000e+00       0.000000000000e+00
      6.791837607159e-04       0.000000000000e+00       0.000000000000e+00
      7.216323274521e-04       0.000000000000e+00       0.000000000000e+00
      7.640828478417e-04       0.000000000000e+00       0.000000000000e+00
      8.065260770982e-04       0.000000000000e+00       0.000000000000e+00
      8.489965172362e-04       0.000000000000e+00       0.000000000000e+00
      8.913654049820e-04       0.000000000000e+00       0.000000000000e+00
      9.341132914056e-04       0.000000000000e+00       0.000000000000e+00
      9.754467355165e-04       0.000000000000e+00       0.000000000000e+00
      1.022058950202e-03       0.000000000000e+00       0.000000000000e+00
      1.048970524899e-03       0.000000000000e+00       0.000000000000e+00
      0.000000000000e+00       0.000000000000e+00       0.000000000000e+00
      4.244897959182e-05       0.000000000000e+00       0.000000000000e+00
      8.489795918365e-05       0.000000000000e+00       0.000000000000e+00
      1.273469387755e-04       0.000000000000e+00       0.000000000000e+00
      1.697959183673e-04       0.000000000000e+00       0.000000000000e+00
      2.122448979591e-04       0.000000000000e+00       0.000000000000e+00
      2.546938775514e-04       0.000000000000e+00       0.000000000000e+00
      2.971428571419e-04       0.000000000000e+00       0.000000000000e+00
      3.395918367368e-04       0.000000000000e+00       0.000000000000e+00
      3.820408163184e-04       0.000000000000e+00       0.000000000000e+00
      4.244897959511e-04       0.000000000000e+00       0.000000000000e+00
      4.669387753893e-04       0.000000000000e+00       0.000000000000e+00
      5.093877555513e-04       0.000000000000e+00       0.000000000000e+00
      5.518367330160e-04       0.000000000000e+00       0.000000000000e+00
      5.942857205499e-04       0.000000000000e+00       0.000000000000e+00
      6.367346704987e-04       0.000000000000e+00       0.000000000000e+00
      6.791837607167e-04       0.000000000000e+00       0.000000000000e+00
      7.216323274521e-04       0.000000000000e+00       0.000000000000e+00
      7.640828478417e-04       0.000000000000e+00       0.000000000000e+00
      8.065260770991e-04       0.000000000000e+00       0.000000000000e+00
      8.489965172345e-04       0.000000000000e+00       0.000000000000e+00
      8.913654049838e-04       0.000000000000e+00       0.000000000000e+00
      9.341132914038e-04       0.000000000000e+00       0.000000000000e+00
      9.754467355148e-04       0.000000000000e+00       0.000000000000e+00
      1.022058950202e-03       0.000000000000e+00       0.000000000000e+00
      1.048970524899e-03       0.000000000000e+00       0.000000000000e+00
      0.000000000000e+00       0.000000000000e+00       0.000000000000e+00
      4.244897959182e-05       0.000000000000e+00       0.000000000000e+00
      8.489795918365e-05       0.000000000000e+00       0.000000000000e+00
      1.273469387755e-04       0.000000000000e+00       0.000000000000e+00
      1.697959183673e-04       0.000000000000e+00       0.000000000000e+00
      2.122448979591e-04       0.000000000000e+00       0.000000000000e+00
      2.546938775509e-04       0.000000000000e+00       0.000000000000e+00
      2.971428571423e-04       0.000000000000e+00       0.000000000000e+00
      3.395918367368e-04       0.000000000000e+00       0.000000000000e+00
      3.820408163184e-04       0.000000000000e+00       0.000000000000e+00
      4.244897959493e-04       0.000000000000e+00       0.000000000000e+00
      4.669387753893e-04       0.000000000000e+00       0.000000000000e+00
      5.093877555513e-04       0.000000000000e+00       0.000000000000e+00
      5.518367330151e-04       0.000000000000e+00       0.000000000000e+00
      5.942857205490e-04       0.000000000000e+00       0.000000000000e+00
      6.367346705005e-04       0.000000000000e+00       0.000000000000e+00
      6.791837607159e-04       0.000000000000e+00       0.000000000000e+00
      7.216323274521e-04       0.000000000000e+00       0.000000000000e+00
      7.640828478426e-04       0.000000000000e+00       0.000000000000e+00
      8.065260770973e-04       0.000000000000e+00       0.000000000000e+00
      8.489965172345e-04       0.000000000000e+00       0.000000000000e+00
      8.913654049838e-04       0.000000000000e+00       0.000000000000e+00
      9.341132914038e-04       0.000000000000e+00       0.000000000000e+00
      9.754467355148e-04       0.000000000000e+00       0.000000000000e+00
      1.022058950202e-03       0.000000000000e+00       0.000000000000e+00
      1.048970524899e-03       0.000000000000e+00       0.000000000000e+00
      0.000000000000e+00       0.000000000000e+00       0.000000000000e+00
      4.244897959182e-05       0.000000000000e+00       0.000000000000e+00
      8.489795918365e-05       0.000000000000e+00       0.000000000000e+00
      1.273469387755e-04       0.000000000000e+00       0.000000000000e+00
      1.697959183673e-04       0.000000000000e+00       0.000000000000e+00
      2.122448979591e-04       0.000000000000e+00       0.000000000000e+00
      2.546938775509e-04       0.000000000000e+00       0.000000000000e+00
      2.971428571423e-04       0.000000000000e+00       0.000000000000e+00
      3.395918367368e-04       0.000000000000e+00       0.000000000000e+00
      3.820408163175e-04       0.000000000000e+00       0.000000000000e+00
      4.244897959502e-04       0.000000000000e+00       0.000000000000e+00
      4.669387753893e-04       0.000000000000e+00       0.000000000000e+00
      5.093877555513e-04       0.000000000000e+00       0.000000000000e+00
      5.518367330151e-04       0.000000000000e+00       0.000000000000e+00
      5.942857205490e-04       0.000000000000e+00       0.000000000000e+00
      6.367346705005e-04       0.000000000000e+00       0.000000000000e+00
      6.791837607159e-04       0.000000000000e+00       0.000000000000e+00
      7.216323274530e-04       0.000000000000e+00       0.000000000000e+00
      7.640828478426e-04       0.000000000000e+00       0.000000000000e+00
      8.065260771000e-04       0.000000000000e+00       0.000000000000e+00
      8.489965172345e-04       0.000000000000e+00       0.000000000000e+00
      8.913654049820e-04       0.000000000000e+00       0.000000000000e+00
      9.341132914056e-04       0.000000000000e+00       0.000000000000e+00
      9.754467355148e-04       0.000000000000e+00       0.000000000000e+00
      1.022058950202e-03       0.000000000000e+00       0.000000000000e+00
      1.048970524899e-03       0.000000000000e+00       0.000000000000e+00
      0.000000000000e+00       0.000000000000e+00       0.000000000000e+00
      4.244897959182e-05       0.000000000000e+00       0.000000000000e+00
      8.489795918365e-05       0.000000000000e+00       0.000000000000e+00
      1.273469387755e-04       0.000000000000e+00       0.000000000000e+00
      1.697959183673e-04       0.000000000000e+00       0.000000000000e+00
      2.122448979591e-04       0.000000000000e+00       0.000000000000e+00
      2.546938775509e-04       0.000000000000e+00       0.000000000000e+00
      2.971428571419e-04       0.000000000000e+00       0.000000000000e+00
      3.395918367368e-04       0.000000000000e+00       0.000000000000e+00
      3.820408163184e-04       0.000000000000e+00       0.000000000000e+00
      4.244897959511e-04       0.000000000000e+00       0.000000000000e+00
      4.669387753893e-04       0.000000000000e+00       0.000000000000e+00
      5.093877555513e-04       0.000000000000e+00       0.000000000000e+00
      5.518367330151e-04       0.000000000000e+00       0.000000000000e+00
      5.942857205499e-04       0.000000000000e+00       0.000000000000e+00
      6.367346704996e-04       0.000000000000e+00       0.000000000000e+00
      6.791837607159e-04       0.000000000000e+00       0.000000000000e+00
      7.216323274521e-04       0.000000000000e+00       0.000000000000e+00
      7.640828478426e-04       0.000000000000e+00       0.000000000000e+00
      8.065260770982e-04       0.000000000000e+00       0.000000000000e+00
      8.489965172362e-04       0.000000000000e+00       0.000000000000e+00
      8.913654049820e-04       0.000000000000e+00       0.000000000000e+00
      9.341132914056e-04       0.000000000000e+00       0.000000000000e+00
      9.754467355165e-04       0.000000000000e+00       0.000000000000e+00
      1.022058950202e-03       0.000000000000e+00       0.000000000000e+00
      1.048970524899e-03       0.000000000000e+00       0.000000000000e+00
      0.000000000000e+00       0.000000000000e+00       0.000000000000e+00
      4.244897959182e-05       0.000000000000e+00       0.000000000000e+00
      8.489795918365e-05       0.000000000000e+00       0.000000000000e+00
      1.273469387755e-04       0.000000000000e+00       0.000000000000e+00
      1.697959183673e-04       0.000000000000e+00       0.000000000000e+00
      2.122448979591e-04       0.000000000000e+00       0.000000000000e+00
      2.546938775509e-04       0.000000000000e+00       0.000000000000e+00
      2.971428571428e-04       0.000000000000e+00       0.000000000000e+00
      3.395918367373e-04       0.000000000000e+00       0.000000000000e+00
      3.820408163175e-04       0.000000000000e+00       0.000000000000e+00
      4.244897959502e-04       0.000000000000e+00       0.000000000000e+00
      4.669387753893e-04       0.000000000000e+00       0.000000000000e+00
      5.093877555513e-04       0.000000000000e+00       0.000000000000e+00
      5.518367330151e-04       0.000000000000e+00       0.000000000000e+00
      5.942857205490e-04       0.000000000000e+00       0.000000000000e+00
      6.367346705005e-04       0.000000000000e+00       0.000000000000e+00
      6.791837607159e-04       0.000000000000e+00       0.000000000000e+00
      7.216323274521e-04       0.000000000000e+00       0.000000000000e+00
      7.640828478435e-04       0.000000000000e+00       0.000000000000e+00
      8.065260770982e-04       0.000000000000e+00       0.000000000000e+00
      8.489965172345e-04       0.000000000000e+00       0.000000000000e+00
      8.913654049838e-04       0.000000000000e+00       0.000000000000e+00
      9.341132914038e-04       0.000000000000e+00       0.000000000000e+00
      9.754467355130e-04       0.000000000000e+00       0.000000000000e+00
      1.022058950202e-03       0.000000000000e+00       0.000000000000e+00
      1.048970524899e-03       0.000000000000e+00       0.000000000000e+00
      0.000000000000e+00       0.000000000000e+00       0.000000000000e+00
      4.244897959188e-05       0.000000000000e+00       0.000000000000e+00
      8.489795918365e-05       0.000000000000e+00       0.000000000000e+00
      1.273469387755e-04       0.000000000000e+00       0.000000000000e+00
      1.697959183673e-04       0.000000000000e+00       0.000000000000e+00
      2.122448979591e-04       0.000000000000e+00       0.000000000000e+00