# vtk DataFile Version 3.0
D1_beam_C1_02.vtk
ASCII
DATASET UNSTRUCTURED_GRID
FIELD FieldData 2
TIME 1 1 double
1.000000e+00
CYCLE 1 1 int
2
POINTS 16 double
      0.000000000000e+00       0.000000000000e+00       0.000000000000e+00
      1.333333333333e+00       0.000000000000e+00       0.000000000000e+00
      2.666666666667e+00       0.000000000000e+00       0.000000000000e+00
      4.000000000000e+00       0.000000000000e+00       0.000000000000e+00
      0.000000000000e+00       2.000000000000e+00       0.000000000000e+00
      1.333333333333e+00       2.000000000000e+00       0.000000000000e+00
      2.666666666667e+00       2.000000000000e+00       0.000000000000e+00
      4.000000000000e+00       2.000000000000e+00       0.000000000000e+00
      4.000000000000e+00       0.000000000000e+00       0.000000000000e+00
      5.333333333333e+00       0.000000000000e+00       0.000000000000e+00
      6.666666666667e+00       0.000000000000e+00       0.000000000000e+00
      8.000000000000e+00       0.000000000000e+00       0.000000000000e+00
      4.000000000000e+00       2.000000000000e+00       0.000000000000e+00
      5.333333333333e+00       2.000000000000e+00       0.000000000000e+00
      6.666666666667e+00       2.000000000000e+00       0.000000000000e+00
      8.000000000000e+00       2.000000000000e+00       0.000000000000e+00
CELLS 6 30
4         0        1        5        4
4         1        2        6        5
4         2        3        7        6
4         8        9       13       12
4         9       10       14       13
4        10       11       15       14
CELL_TYPES 6
9
9
9
9
9
9
POINT_DATA 16
VECTORS DSPL double
      0.000000000000e+00       0.000000000000e+00       0.000000000000e+00
      1.233333333333e-02       0.000000000000e+00       0.000000000000e+00
      1.818269230769e-02       0.000000000000e+00       0.000000000000e+00
      2.150000000000e-02       0.000000000000e+00       0.000000000000e+00
      0.000000000000e+00       0.000000000000e+00       0.000000000000e+00
      1.233333333333e-02       0.000000000000e+00       0.000000000000e+00
      1.818269230769e-02       0.000000000000e+00       0.000000000000e+00
      2.150000000000e-02       0.000000000000e+00       0.000000000000e+00
      2.150000000000e-02       0.000000000000e+00       0.000000000000e+00
      2.481730769231e-02       0.000000000000e+00       0.000000000000e+00
      2.733333333333e-02       0.000000000000e+00       0.000000000000e+00
      3.000000000000e-02       0.000000000000e+00       0.000000000000e+00
      2.150000000000e-02       0.000000000000e+00       0.000000000000e+00
      2.481730769231e-02       0.000000000000e+00       0.000000000000e+00
      2.733333333333e-02       0.000000000000e+00       0.000000000000e+00
      3.000000000000e-02       0.000000000000e+00       0.000000000000e+00
CELL_DATA 6
SCALARS eps11 double
LOOKUP_TABLE default
      9.250000000000e-03
      4.387019230769e-03
      2.487980769231e-03
      2.487980769231e-03
      1.887019230769e-03
      2.000000000000e-03
SCALARS eps12 double
LOOKUP_TABLE default
      6.985921902779e-20
      3.405072447962e-19
     -9.870862013037e-19
     -1.236068693227e-18
     -3.083199928006e-19
     -2.822907786307e-19
SCALARS eps21 double
LOOKUP_TABLE default
      6.985921902779e-20
      3.405072447962e-19
     -9.870862013037e-19
     -1.236068693227e-18
     -3.083199928006e-19
     -2.822907786307e-19
SCALARS eps22 double
LOOKUP_TABLE default
      0.000000000000e+00
      0.000000000000e+00
      0.000000000000e+00
      0.000000000000e+00
      0.000000000000e+00
      0.000000000000e+00
SCALARS sig11 double
LOOKUP_TABLE default
      2.614903846154e+03
      1.240176590237e+03
      7.033330251479e+02
      7.033330251479e+02
      5.334458210059e+02
      5.653846153846e+02
SCALARS sig12 double
LOOKUP_TABLE default
      1.128495076603e-14
      5.500501646708e-14
     -1.594523863644e-13
     -1.996726350598e-13
     -4.980553729855e-14
     -4.560081808650e-14
SCALARS sig21 double
LOOKUP_TABLE default
      1.128495076603e-14
      5.500501646708e-14
     -1.594523863644e-13
     -1.996726350598e-13
     -4.980553729855e-14
     -4.560081808650e-14
SCALARS sig22 double
LOOKUP_TABLE default
      1.120673076923e+03
      5.315042529586e+02
      3.014284393491e+02
      3.014284393491e+02
      2.286196375740e+02
      2.423076923077e+02
