# vtk DataFile Version 3.0
D1_beam_C0_02.vtk
ASCII
DATASET UNSTRUCTURED_GRID
FIELD FieldData 2
TIME 1 1 double
1.000000e+00
CYCLE 1 1 int
2
POINTS 16 double
      0.000000000000e+00       0.000000000000e+00       0.000000000000e+00
      1.333333333333e+00       0.000000000000e+00       0.000000000000e+00
      2.666666666667e+00       0.000000000000e+00       0.000000000000e+00
      4.000000000000e+00       0.000000000000e+00       0.000000000000e+00
      0.000000000000e+00       2.000000000000e+00       0.000000000000e+00
      1.333333333333e+00       2.000000000000e+00       0.000000000000e+00
      2.666666666667e+00       2.000000000000e+00       0.000000000000e+00
      4.000000000000e+00       2.000000000000e+00       0.000000000000e+00
      4.000000000000e+00       0.000000000000e+00       0.000000000000e+00
      5.333333333333e+00       0.000000000000e+00       0.000000000000e+00
      6.666666666667e+00       0.000000000000e+00       0.000000000000e+00
      8.000000000000e+00       0.000000000000e+00       0.000000000000e+00
      4.000000000000e+00       2.000000000000e+00       0.000000000000e+00
      5.333333333333e+00       2.000000000000e+00       0.000000000000e+00
      6.666666666667e+00       2.000000000000e+00       0.000000000000e+00
      8.000000000000e+00       2.000000000000e+00       0.000000000000e+00
CELLS 6 30
4         0        1        5        4
4         1        2        6        5
4         2        3        7        6
4         8        9       13       12
4         9       10       14       13
4        10       11       15       14
CELL_TYPES 6
9
9
9
9
9
9
POINT_DATA 16
VECTORS DSPL double
      0.000000000000e+00       0.000000000000e+00       0.000000000000e+00
      1.233333333333e-02       0.000000000000e+00       0.000000000000e+00
      1.751602564103e-02       0.000000000000e+00       0.000000000000e+00
      2.072222222222e-02       0.000000000000e+00       0.000000000000e+00
      0.000000000000e+00       0.000000000000e+00       0.000000000000e+00
      1.233333333333e-02       0.000000000000e+00       0.000000000000e+00
      1.751602564103e-02       0.000000000000e+00       0.000000000000e+00
      2.072222222222e-02       0.000000000000e+00       0.000000000000e+00
      2.072222222222e-02       0.000000000000e+00       0.000000000000e+00
      2.415064102564e-02       0.000000000000e+00       0.000000000000e+00
      2.733333333333e-02       0.000000000000e+00       0.000000000000e+00
      3.000000000000e-02       0.000000000000e+00       0.000000000000e+00
      2.072222222222e-02       0.000000000000e+00       0.000000000000e+00
      2.415064102564e-02       0.000000000000e+00       0.000000000000e+00
      2.733333333333e-02       0.000000000000e+00       0.000000000000e+00
      3.000000000000e-02       0.000000000000e+00       0.000000000000e+00
CELL_DATA 6
SCALARS eps11 double
LOOKUP_TABLE default
      9.250000000000e-03
      3.887019230769e-03
      2.404647435897e-03
      2.571314102564e-03
      2.387019230769e-03
      2.000000000000e-03
SCALARS eps12 double
LOOKUP_TABLE default
      6.985921902779e-20
      9.097133853511e-19
      1.116415260093e-19
     -7.228883556499e-19
     -4.675621868844e-19
     -2.822907786307e-19
SCALARS eps21 double
LOOKUP_TABLE default
      6.985921902779e-20
      9.097133853511e-19
      1.116415260093e-19
     -7.228883556499e-19
     -4.675621868844e-19
     -2.822907786307e-19
SCALARS eps22 double
LOOKUP_TABLE default
      0.000000000000e+00
      0.000000000000e+00
      0.000000000000e+00
      0.000000000000e+00
      0.000000000000e+00
      0.000000000000e+00
SCALARS sig11 double
LOOKUP_TABLE default
      2.614903846154e+03
      1.098830436391e+03
      6.797753328402e+02
      7.268907174556e+02
      6.747919748521e+02
      5.653846153846e+02
SCALARS sig12 double
LOOKUP_TABLE default
      1.128495076603e-14
      1.469537007106e-13
      1.803440035534e-14
     -1.167742728358e-13
     -7.552927634286e-14
     -4.560081808650e-14
SCALARS sig21 double
LOOKUP_TABLE default
      1.128495076603e-14
      1.469537007106e-13
      1.803440035534e-14
     -1.167742728358e-13
     -7.552927634286e-14
     -4.560081808650e-14
SCALARS sig22 double
LOOKUP_TABLE default
      1.120673076923e+03
      4.709273298817e+02
      2.913322855030e+02
      3.115245931953e+02
      2.891965606509e+02
      2.423076923077e+02
