# vtk DataFile Version 3.0
D1_beam_C0_01.vtk
ASCII
DATASET UNSTRUCTURED_GRID
FIELD FieldData 2
TIME 1 1 double
0.000000e+00
CYCLE 1 1 int
1
POINTS 16 double
      0.000000000000e+00       0.000000000000e+00       0.000000000000e+00
      1.333333333333e+00       0.000000000000e+00       0.000000000000e+00
      2.666666666667e+00       0.000000000000e+00       0.000000000000e+00
      4.000000000000e+00       0.000000000000e+00       0.000000000000e+00
      0.000000000000e+00       2.000000000000e+00       0.000000000000e+00
      1.333333333333e+00       2.000000000000e+00       0.000000000000e+00
      2.666666666667e+00       2.000000000000e+00       0.000000000000e+00
      4.000000000000e+00       2.000000000000e+00       0.000000000000e+00
      4.000000000000e+00       0.000000000000e+00       0.000000000000e+00
      5.333333333333e+00       0.000000000000e+00       0.000000000000e+00
      6.666666666667e+00       0.000000000000e+00       0.000000000000e+00
      8.000000000000e+00       0.000000000000e+00       0.000000000000e+00
      4.000000000000e+00       2.000000000000e+00       0.000000000000e+00
      5.333333333333e+00       2.000000000000e+00       0.000000000000e+00
      6.666666666667e+00       2.000000000000e+00       0.000000000000e+00
      8.000000000000e+00       2.000000000000e+00       0.000000000000e+00
CELLS 6 30
4         0        1        5        4
4         1        2        6        5
4         2        3        7        6
4         8        9       13       12
4         9       10       14       13
4        10       11       15       14
CELL_TYPES 6
9
9
9
9
9
9
POINT_DATA 16
VECTORS DSPL double
      0.000000000000e+00       0.000000000000e+00       0.000000000000e+00
      0.000000000000e+00       0.000000000000e+00       0.000000000000e+00
      0.000000000000e+00       0.000000000000e+00       0.000000000000e+00
      0.000000000000e+00       0.000000000000e+00       0.000000000000e+00
      0.000000000000e+00       0.000000000000e+00       0.000000000000e+00
      0.000000000000e+00       0.000000000000e+00       0.000000000000e+00
      0.000000000000e+00       0.000000000000e+00       0.000000000000e+00
      0.000000000000e+00       0.000000000000e+00       0.000000000000e+00
      0.000000000000e+00       0.000000000000e+00       0.000000000000e+00
      0.000000000000e+00       0.000000000000e+00       0.000000000000e+00
      0.000000000000e+00       0.000000000000e+00       0.000000000000e+00
      0.000000000000e+00       0.000000000000e+00       0.000000000000e+00
      0.000000000000e+00       0.000000000000e+00       0.000000000000e+00
      0.000000000000e+00       0.000000000000e+00       0.000000000000e+00
      0.000000000000e+00       0.000000000000e+00       0.000000000000e+00
      0.000000000000e+00       0.000000000000e+00       0.000000000000e+00
CELL_DATA 6
SCALARS eps11 double
LOOKUP_TABLE default
      0.000000000000e+00
      0.000000000000e+00
      0.000000000000e+00
      0.000000000000e+00
      0.000000000000e+00
      0.000000000000e+00
SCALARS eps12 double
LOOKUP_TABLE default
      0.000000000000e+00
      0.000000000000e+00
      0.000000000000e+00
      0.000000000000e+00
      0.000000000000e+00
      0.000000000000e+00
SCALARS eps21 double
LOOKUP_TABLE default
      0.000000000000e+00
      0.000000000000e+00
      0.000000000000e+00
      0.000000000000e+00
      0.000000000000e+00
      0.000000000000e+00
SCALARS eps22 double
LOOKUP_TABLE default
      0.000000000000e+00
      0.000000000000e+00
      0.000000000000e+00
      0.000000000000e+00
      0.000000000000e+00
      0.000000000000e+00
SCALARS sig11 double
LOOKUP_TABLE default
      0.000000000000e+00
      0.000000000000e+00
      0.000000000000e+00
      0.000000000000e+00
      0.000000000000e+00
      0.000000000000e+00
SCALARS sig12 double
LOOKUP_TABLE default
      0.000000000000e+00
      0.000000000000e+00
      0.000000000000e+00
      0.000000000000e+00
      0.000000000000e+00
      0.000000000000e+00
SCALARS sig21 double
LOOKUP_TABLE default
      0.000000000000e+00
      0.000000000000e+00
      0.000000000000e+00
      0.000000000000e+00
      0.000000000000e+00
      0.000000000000e+00
SCALARS sig22 double
LOOKUP_TABLE default
      0.000000000000e+00
      0.000000000000e+00
      0.000000000000e+00
      0.000000000000e+00
      0.000000000000e+00
      0.000000000000e+00
