# vtk DataFile Version 3.0
output/IGFEM_Model_beam_shear_02.vtk
ASCII
DATASET UNSTRUCTURED_GRID
FIELD FieldData 2
TIME 1 1 double
1.000000e+00
CYCLE 1 1 int
2
POINTS 341 double
      0.000000000000e+00       0.000000000000e+00       0.000000000000e+00
      6.666666666667e-01       0.000000000000e+00       0.000000000000e+00
      1.333333333333e+00       0.000000000000e+00       0.000000000000e+00
      2.000000000000e+00       0.000000000000e+00       0.000000000000e+00
      2.666666666667e+00       0.000000000000e+00       0.000000000000e+00
      3.333333333333e+00       0.000000000000e+00       0.000000000000e+00
      4.000000000000e+00       0.000000000000e+00       0.000000000000e+00
      4.666666666667e+00       0.000000000000e+00       0.000000000000e+00
      5.333333333333e+00       0.000000000000e+00       0.000000000000e+00
      6.000000000000e+00       0.000000000000e+00       0.000000000000e+00
      6.666666666667e+00       0.000000000000e+00       0.000000000000e+00
      7.333333333333e+00       0.000000000000e+00       0.000000000000e+00
      8.000000000000e+00       0.000000000000e+00       0.000000000000e+00
      8.666666666667e+00       0.000000000000e+00       0.000000000000e+00
      9.333333333333e+00       0.000000000000e+00       0.000000000000e+00
      1.000000000000e+01       0.000000000000e+00       0.000000000000e+00
      1.066666666667e+01       0.000000000000e+00       0.000000000000e+00
      1.133333333333e+01       0.000000000000e+00       0.000000000000e+00
      1.200000000000e+01       0.000000000000e+00       0.000000000000e+00
      1.266666666667e+01       0.000000000000e+00       0.000000000000e+00
      1.333333333333e+01       0.000000000000e+00       0.000000000000e+00
      1.400000000000e+01       0.000000000000e+00       0.000000000000e+00
      1.466666666667e+01       0.000000000000e+00       0.000000000000e+00
      1.533333333333e+01       0.000000000000e+00       0.000000000000e+00
      1.600000000000e+01       0.000000000000e+00       0.000000000000e+00
      1.666666666667e+01       0.000000000000e+00       0.000000000000e+00
      1.733333333333e+01       0.000000000000e+00       0.000000000000e+00
      1.800000000000e+01       0.000000000000e+00       0.000000000000e+00
      1.866666666667e+01       0.000000000000e+00       0.000000000000e+00
      1.933333333333e+01       0.000000000000e+00       0.000000000000e+00
      2.000000000000e+01       0.000000000000e+00       0.000000000000e+00
      0.000000000000e+00       2.000000000000e-01       0.000000000000e+00
      6.666666666667e-01       2.000000000000e-01       0.000000000000e+00
      1.333333333333e+00       2.000000000000e-01       0.000000000000e+00
      2.000000000000e+00       2.000000000000e-01       0.000000000000e+00
      2.666666666667e+00       2.000000000000e-01       0.000000000000e+00
      3.333333333333e+00       2.000000000000e-01       0.000000000000e+00
      4.000000000000e+00       2.000000000000e-01       0.000000000000e+00
      4.666666666667e+00       2.000000000000e-01       0.000000000000e+00
      5.333333333333e+00       2.000000000000e-01       0.000000000000e+00
      6.000000000000e+00       2.000000000000e-01       0.000000000000e+00
      6.666666666667e+00       2.000000000000e-01       0.000000000000e+00
      7.333333333333e+00       2.000000000000e-01       0.000000000000e+00
      8.000000000000e+00       2.000000000000e-01       0.000000000000e+00
      8.666666666667e+00       2.000000000000e-01       0.000000000000e+00
      9.333333333333e+00       2.000000000000e-01       0.000000000000e+00
      1.000000000000e+01       2.000000000000e-01       0.000000000000e+00
      1.066666666667e+01       2.000000000000e-01       0.000000000000e+00
      1.133333333333e+01       2.000000000000e-01       0.000000000000e+00
      1.200000000000e+01       2.000000000000e-01       0.000000000000e+00
      1.266666666667e+01       2.000000000000e-01       0.000000000000e+00
      1.333333333333e+01       2.000000000000e-01       0.000000000000e+00
      1.400000000000e+01       2.000000000000e-01       0.000000000000e+00
      1.466666666667e+01       2.000000000000e-01       0.000000000000e+00
      1.533333333333e+01       2.000000000000e-01       0.000000000000e+00
      1.600000000000e+01       2.000000000000e-01       0.000000000000e+00
      1.666666666667e+01       2.000000000000e-01       0.000000000000e+00
      1.733333333333e+01       2.000000000000e-01       0.000000000000e+00
      1.800000000000e+01       2.000000000000e-01       0.000000000000e+00
      1.866666666667e+01       2.000000000000e-01       0.000000000000e+00
      1.933333333333e+01       2.000000000000e-01       0.000000000000e+00
      2.000000000000e+01       2.000000000000e-01       0.000000000000e+00
      0.000000000000e+00       4.000000000000e-01       0.000000000000e+00
      6.666666666667e-01       4.000000000000e-01       0.000000000000e+00
      1.333333333333e+00       4.000000000000e-01       0.000000000000e+00
      2.000000000000e+00       4.000000000000e-01       0.000000000000e+00
      2.666666666667e+00       4.000000000000e-01       0.000000000000e+00
      3.333333333333e+00       4.000000000000e-01       0.000000000000e+00
      4.000000000000e+00       4.000000000000e-01       0.000000000000e+00
      4.666666666667e+00       4.000000000000e-01       0.000000000000e+00
      5.333333333333e+00       4.000000000000e-01       0.000000000000e+00
      6.000000000000e+00       4.000000000000e-01       0.000000000000e+00
      6.666666666667e+00       4.000000000000e-01       0.000000000000e+00
      7.333333333333e+00       4.000000000000e-01       0.000000000000e+00
      8.000000000000e+00       4.000000000000e-01       0.000000000000e+00
      8.666666666667e+00       4.000000000000e-01       0.000000000000e+00
      9.333333333333e+00       4.000000000000e-01       0.000000000000e+00
      1.000000000000e+01       4.000000000000e-01       0.000000000000e+00
      1.066666666667e+01       4.000000000000e-01       0.000000000000e+00
      1.133333333333e+01       4.000000000000e-01       0.000000000000e+00
      1.200000000000e+01       4.000000000000e-01       0.000000000000e+00
      1.266666666667e+01       4.000000000000e-01       0.000000000000e+00
      1.333333333333e+01       4.000000000000e-01       0.000000000000e+00
      1.400000000000e+01       4.000000000000e-01       0.000000000000e+00
      1.466666666667e+01       4.000000000000e-01       0.000000000000e+00
      1.533333333333e+01       4.000000000000e-01       0.000000000000e+00
      1.600000000000e+01       4.000000000000e-01       0.000000000000e+00
      1.666666666667e+01       4.000000000000e-01       0.000000000000e+00
      1.733333333333e+01       4.000000000000e-01       0.000000000000e+00
      1.800000000000e+01       4.000000000000e-01       0.000000000000e+00
      1.866666666667e+01       4.000000000000e-01       0.000000000000e+00
      1.933333333333e+01       4.000000000000e-01       0.000000000000e+00
      2.000000000000e+01       4.000000000000e-01       0.000000000000e+00
      0.000000000000e+00       6.000000000000e-01       0.000000000000e+00
      6.666666666667e-01       6.000000000000e-01       0.000000000000e+00
      1.333333333333e+00       6.000000000000e-01       0.000000000000e+00
      2.000000000000e+00       6.000000000000e-01       0.000000000000e+00
      2.666666666667e+00       6.000000000000e-01       0.000000000000e+00
      3.333333333333e+00       6.000000000000e-01       0.000000000000e+00
      4.000000000000e+00       6.000000000000e-01       0.000000000000e+00
      4.666666666667e+00       6.000000000000e-01       0.000000000000e+00
      5.333333333333e+00       6.000000000000e-01       0.000000000000e+00
      6.000000000000e+00       6.000000000000e-01       0.000000000000e+00
      6.666666666667e+00       6.000000000000e-01       0.000000000000e+00
      7.333333333333e+00       6.000000000000e-01       0.000000000000e+00
      8.000000000000e+00       6.000000000000e-01       0.000000000000e+00
      8.666666666667e+00       6.000000000000e-01       0.000000000000e+00
      9.333333333333e+00       6.000000000000e-01       0.000000000000e+00
      1.000000000000e+01       6.000000000000e-01       0.000000000000e+00
      1.066666666667e+01       6.000000000000e-01       0.000000000000e+00
      1.133333333333e+01       6.000000000000e-01       0.000000000000e+00
      1.200000000000e+01       6.000000000000e-01       0.000000000000e+00
      1.266666666667e+01       6.000000000000e-01       0.000000000000e+00
      1.333333333333e+01       6.000000000000e-01       0.000000000000e+00
      1.400000000000e+01       6.000000000000e-01       0.000000000000e+00
      1.466666666667e+01       6.000000000000e-01       0.000000000000e+00
      1.533333333333e+01       6.000000000000e-01       0.000000000000e+00
      1.600000000000e+01       6.000000000000e-01       0.000000000000e+00
      1.666666666667e+01       6.000000000000e-01       0.000000000000e+00
      1.733333333333e+01       6.000000000000e-01       0.000000000000e+00
      1.800000000000e+01       6.000000000000e-01       0.000000000000e+00
      1.866666666667e+01       6.000000000000e-01       0.000000000000e+00
      1.933333333333e+01       6.000000000000e-01       0.000000000000e+00
      2.000000000000e+01       6.000000000000e-01       0.000000000000e+00
      0.000000000000e+00       8.000000000000e-01       0.000000000000e+00
      6.666666666667e-01       8.000000000000e-01       0.000000000000e+00
      1.333333333333e+00       8.000000000000e-01       0.000000000000e+00
      2.000000000000e+00       8.000000000000e-01       0.000000000000e+00
      2.666666666667e+00       8.000000000000e-01       0.000000000000e+00
      3.333333333333e+00       8.000000000000e-01       0.000000000000e+00
[...]
POINT_DATA 341
VECTORS DSPL double
      0.000000000000e+00       0.000000000000e+00       0.000000000000e+00
      0.000000000000e+00       5.833333333373e-02       0.000000000000e+00
      0.000000000000e+00       1.166666666660e-01       0.000000000000e+00
      0.000000000000e+00       1.750000000013e-01       0.000000000000e+00
      0.000000000000e+00       2.333333333309e-01       0.000000000000e+00
      0.000000000000e+00       2.916666666719e-01       0.000000000000e+00
      0.000000000000e+00       3.499999999895e-01       0.000000000000e+00
      0.000000000000e+00       4.083333333553e-01       0.000000000000e+00
      0.000000000000e+00       4.666666666217e-01       0.000000000000e+00
      0.000000000000e+00       5.250000000932e-01       0.000000000000e+00
      0.000000000000e+00       5.833333331413e-01       0.000000000000e+00
      0.000000000000e+00       6.416666670636e-01       0.000000000000e+00
      0.000000000000e+00       6.999999991810e-01       0.000000000000e+00
      0.000000000000e+00       7.583333350246e-01       0.000000000000e+00
      0.000000000000e+00       8.166666631755e-01       0.000000000000e+00
      0.000000000000e+00       8.750000072082e-01       0.000000000000e+00
      0.000000000000e+00       9.333333184519e-01       0.000000000000e+00
      0.000000000000e+00       9.916666973917e-01       0.000000000000e+00
      0.000000000000e+00       1.049999936565e+00       0.000000000000e+00
      0.000000000000e+00       1.108333464307e+00       0.000000000000e+00
      0.000000000000e+00       1.166666396249e+00       0.000000000000e+00
      0.000000000000e+00       1.225000558333e+00       0.000000000000e+00
      0.000000000000e+00       1.283332180536e+00       0.000000000000e+00
      0.000000000000e+00       1.341669046825e+00       0.000000000000e+00
      0.000000000000e+00       1.399995086261e+00       0.000000000000e+00
      0.000000000000e+00       1.458343472274e+00       0.000000000000e+00
      0.000000000000e+00       1.516645799462e+00       0.000000000000e+00
      0.000000000000e+00       1.575042483641e+00       0.000000000000e+00
      0.000000000000e+00       1.633254306560e+00       0.000000000000e+00
      0.000000000000e+00       1.691834500333e+00       0.000000000000e+00
      0.000000000000e+00       1.754071133768e+00       0.000000000000e+00
      0.000000000000e+00       0.000000000000e+00       0.000000000000e+00
      0.000000000000e+00       5.833333333391e-02       0.000000000000e+00
      0.000000000000e+00       1.166666666657e-01       0.000000000000e+00
      0.000000000000e+00       1.750000000019e-01       0.000000000000e+00
      0.000000000000e+00       2.333333333297e-01       0.000000000000e+00
      0.000000000000e+00       2.916666666743e-01       0.000000000000e+00
      0.000000000000e+00       3.499999999846e-01       0.000000000000e+00
      0.000000000000e+00       4.083333333653e-01       0.000000000000e+00
      0.000000000000e+00       4.666666666012e-01       0.000000000000e+00
      0.000000000000e+00       5.250000001350e-01       0.000000000000e+00
      0.000000000000e+00       5.833333330560e-01       0.000000000000e+00
      0.000000000000e+00       6.416666672374e-01       0.000000000000e+00
      0.000000000000e+00       6.999999988266e-01       0.000000000000e+00
      0.000000000000e+00       7.583333357473e-01       0.000000000000e+00
      0.000000000000e+00       8.166666617020e-01       0.000000000000e+00
      0.000000000000e+00       8.750000102124e-01       0.000000000000e+00
      0.000000000000e+00       9.333333123275e-01       0.000000000000e+00
      0.000000000000e+00       9.916667098759e-01       0.000000000000e+00
      0.000000000000e+00       1.049999911118e+00       0.000000000000e+00
      0.000000000000e+00       1.108333516172e+00       0.000000000000e+00
      0.000000000000e+00       1.166666290544e+00       0.000000000000e+00
      0.000000000000e+00       1.225000773744e+00       0.000000000000e+00
      0.000000000000e+00       1.283331741622e+00       0.000000000000e+00
      0.000000000000e+00       1.341669940847e+00       0.000000000000e+00
      0.000000000000e+00       1.399993267060e+00       0.000000000000e+00
      0.000000000000e+00       1.458347161571e+00       0.000000000000e+00
      0.000000000000e+00       1.516638405039e+00       0.000000000000e+00
      0.000000000000e+00       1.575056684167e+00       0.000000000000e+00
      0.000000000000e+00       1.633230801637e+00       0.000000000000e+00
      0.000000000000e+00       1.691825670791e+00       0.000000000000e+00
      0.000000000000e+00       1.754389435347e+00       0.000000000000e+00
      0.000000000000e+00       0.000000000000e+00       0.000000000000e+00
      0.000000000000e+00       5.833333333293e-02       0.000000000000e+00
      0.000000000000e+00       1.166666666674e-01       0.000000000000e+00
      0.000000000000e+00       1.749999999987e-01       0.000000000000e+00
      0.000000000000e+00       2.333333333361e-01       0.000000000000e+00
      0.000000000000e+00       2.916666666612e-01       0.000000000000e+00
      0.000000000000e+00       3.500000000113e-01       0.000000000000e+00
      0.000000000000e+00       4.083333333104e-01       0.000000000000e+00
      0.000000000000e+00       4.666666667139e-01       0.000000000000e+00
      0.000000000000e+00       5.249999999035e-01       0.000000000000e+00
      0.000000000000e+00       5.833333335312e-01       0.000000000000e+00
      0.000000000000e+00       6.416666662618e-01       0.000000000000e+00
      0.000000000000e+00       7.000000008294e-01       0.000000000000e+00
      0.000000000000e+00       7.583333316354e-01       0.000000000000e+00
      0.000000000000e+00       8.166666701438e-01       0.000000000000e+00
      0.000000000000e+00       8.749999928807e-01       0.000000000000e+00
      0.000000000000e+00       9.333333479111e-01       0.000000000000e+00
      0.000000000000e+00       9.916666368187e-01       0.000000000000e+00
      0.000000000000e+00       1.050000061114e+00       0.000000000000e+00
      0.000000000000e+00       1.108333208205e+00       0.000000000000e+00
      0.000000000000e+00       1.166666922857e+00       0.000000000000e+00
      0.000000000000e+00       1.224999475486e+00       0.000000000000e+00
      0.000000000000e+00       1.283334407142e+00       0.000000000000e+00
      0.000000000000e+00       1.341664468688e+00       0.000000000000e+00
      0.000000000000e+00       1.400004496445e+00       0.000000000000e+00
      0.000000000000e+00       1.458324154528e+00       0.000000000000e+00
      0.000000000000e+00       1.516685253501e+00       0.000000000000e+00
      0.000000000000e+00       1.574963538859e+00       0.000000000000e+00
      0.000000000000e+00       1.633396571218e+00       0.000000000000e+00
      0.000000000000e+00       1.691654443595e+00       0.000000000000e+00
      0.000000000000e+00       1.748343926751e+00       0.000000000000e+00
      0.000000000000e+00       0.000000000000e+00       0.000000000000e+00
      0.000000000000e+00       5.833333333329e-02       0.000000000000e+00
      0.000000000000e+00       1.166666666668e-01       0.000000000000e+00
      0.000000000000e+00       1.749999999998e-01       0.000000000000e+00
      0.000000000000e+00       2.333333333338e-01       0.000000000000e+00
      0.000000000000e+00       2.916666666659e-01       0.000000000000e+00
      0.000000000000e+00       3.500000000018e-01       0.000000000000e+00
      0.000000000000e+00       4.083333333298e-01       0.000000000000e+00
      0.000000000000e+00       4.666666666742e-01       0.000000000000e+00
      0.000000000000e+00       5.249999999845e-01       0.000000000000e+00
      0.000000000000e+00       5.833333333660e-01       0.000000000000e+00
      0.000000000000e+00       6.416666665988e-01       0.000000000000e+00
      0.000000000000e+00       7.000000001421e-01       0.000000000000e+00
      0.000000000000e+00       7.583333330371e-01       0.000000000000e+00
      0.000000000000e+00       8.166666672852e-01       0.000000000000e+00
      0.000000000000e+00       8.749999987103e-01       0.000000000000e+00
      0.000000000000e+00       9.333333360238e-01       0.000000000000e+00
      0.000000000000e+00       9.916666610567e-01       0.000000000000e+00
      0.000000000000e+00       1.050000011697e+00       0.000000000000e+00
      0.000000000000e+00       1.108333308951e+00       0.000000000000e+00
      0.000000000000e+00       1.166666717487e+00       0.000000000000e+00
      0.000000000000e+00       1.224999894095e+00       0.000000000000e+00
      0.000000000000e+00       1.283333554009e+00       0.000000000000e+00
      0.000000000000e+00       1.341666206840e+00       0.000000000000e+00
      0.000000000000e+00       1.400000958474e+00       0.000000000000e+00
      0.000000000000e+00       1.458331333047e+00       0.000000000000e+00
      0.000000000000e+00       1.516670852909e+00       0.000000000000e+00
      0.000000000000e+00       1.574991199462e+00       0.000000000000e+00
      0.000000000000e+00       1.633350647019e+00       0.000000000000e+00
      0.000000000000e+00       1.691617085045e+00       0.000000000000e+00
      0.000000000000e+00       1.748851145961e+00       0.000000000000e+00
      0.000000000000e+00       0.000000000000e+00       0.000000000000e+00
      0.000000000000e+00       5.833333333320e-02       0.000000000000e+00
      0.000000000000e+00       1.166666666669e-01       0.000000000000e+00
      0.000000000000e+00       1.749999999995e-01       0.000000000000e+00
      0.000000000000e+00       2.333333333344e-01       0.000000000000e+00
      0.000000000000e+00       2.916666666647e-01       0.000000000000e+00
      0.000000000000e+00       3.500000000043e-01       0.000000000000e+00
      0.000000000000e+00       4.083333333247e-01       0.000000000000e+00
      0.000000000000e+00       4.666666666848e-01       0.000000000000e+00
      0.000000000000e+00       5.249999999626e-01       0.000000000000e+00
      0.000000000000e+00       5.833333334110e-01       0.000000000000e+00
      0.000000000000e+00       6.416666665061e-01       0.000000000000e+00
      0.000000000000e+00       7.000000003331e-01       0.000000000000e+00
      0.000000000000e+00       7.583333326438e-01       0.000000000000e+00
      0.000000000000e+00       8.166666680954e-01       0.000000000000e+00
      0.000000000000e+00       8.749999970409e-01       0.000000000000e+00
      0.000000000000e+00       9.333333394635e-01       0.000000000000e+00
      0.000000000000e+00       9.916666539688e-01       0.000000000000e+00
      0.000000000000e+00       1.050000026304e+00       0.000000000000e+00
      0.000000000000e+00       1.108333278846e+00       0.000000000000e+00
      0.000000000000e+00       1.166666779536e+00       0.000000000000e+00
      0.000000000000e+00       1.224999766194e+00       0.000000000000e+00
      0.000000000000e+00       1.283333817658e+00       0.000000000000e+00
      0.000000000000e+00       1.341665663405e+00       0.000000000000e+00
      0.000000000000e+00       1.400002078157e+00       0.000000000000e+00
      0.000000000000e+00       1.458329029127e+00       0.000000000000e+00
      0.000000000000e+00       1.516675574391e+00       0.000000000000e+00
      0.000000000000e+00       1.574981603677e+00       0.000000000000e+00
      0.000000000000e+00       1.633368371384e+00       0.000000000000e+00
      0.000000000000e+00       1.691555810207e+00       0.000000000000e+00
      0.000000000000e+00       1.747814528902e+00       0.000000000000e+00
      0.000000000000e+00       0.000000000000e+00       0.000000000000e+00
      0.000000000000e+00       5.833333333331e-02       0.000000000000e+00
      0.000000000000e+00       1.166666666668e-01       0.000000000000e+00
      0.000000000000e+00       1.749999999999e-01       0.000000000000e+00
      0.000000000000e+00       2.333333333337e-01       0.000000000000e+00
      0.000000000000e+00       2.916666666661e-01       0.000000000000e+00
      0.000000000000e+00       3.500000000014e-01       0.000000000000e+00
      0.000000000000e+00       4.083333333307e-01       0.000000000000e+00
      0.000000000000e+00       4.666666666726e-01       0.000000000000e+00
      0.000000000000e+00       5.249999999877e-01       0.000000000000e+00
      0.000000000000e+00       5.833333333597e-01       0.000000000000e+00
      0.000000000000e+00       6.416666666111e-01       0.000000000000e+00
      0.000000000000e+00       7.000000001183e-01       0.000000000000e+00
      0.000000000000e+00       7.583333330832e-01       0.000000000000e+00
      0.000000000000e+00       8.166666671967e-01       0.000000000000e+00
      0.000000000000e+00       8.749999988791e-01       0.000000000000e+00
      0.000000000000e+00       9.333333357041e-01       0.000000000000e+00
      0.000000000000e+00       9.916666616572e-01       0.000000000000e+00
      0.000000000000e+00       1.050000010581e+00       0.000000000000e+00
      0.000000000000e+00       1.108333310998e+00       0.000000000000e+00
      0.000000000000e+00       1.166666713791e+00       0.000000000000e+00
      0.000000000000e+00       1.224999900624e+00       0.000000000000e+00
      0.000000000000e+00       1.283333542811e+00       0.000000000000e+00
      0.000000000000e+00       1.341666225231e+00       0.000000000000e+00
      0.000000000000e+00       1.400000930437e+00       0.000000000000e+00
      0.000000000000e+00       1.458331368309e+00       0.000000000000e+00
      0.000000000000e+00       1.516670848602e+00       0.000000000000e+00
      0.000000000000e+00       1.574990813169e+00       0.000000000000e+00
      0.000000000000e+00       1.633352564545e+00       0.000000000000e+00
      0.000000000000e+00       1.691548293591e+00       0.000000000000e+00
      0.000000000000e+00       1.748121324411e+00       0.000000000000e+00
      0.000000000000e+00       0.000000000000e+00       0.000000000000e+00
      0.000000000000e+00       5.833333333320e-02       0.000000000000e+00
      0.000000000000e+00       1.166666666669e-01       0.000000000000e+00
      0.000000000000e+00       1.749999999995e-01       0.000000000000e+00
      0.000000000000e+00       2.333333333344e-01       0.000000000000e+00
      0.000000000000e+00       2.916666666647e-01       0.000000000000e+00
      0.000000000000e+00       3.500000000043e-01       0.000000000000e+00
      0.000000000000e+00       4.083333333247e-01       0.000000000000e+00
      0.000000000000e+00       4.666666666848e-01       0.000000000000e+00
      0.000000000000e+00       5.249999999626e-01       0.000000000000e+00
      0.000000000000e+00       5.833333334110e-01       0.000000000000e+00
      0.000000000000e+00       6.416666665061e-01       0.000000000000e+00
      0.000000000000e+00       7.000000003331e-01       0.000000000000e+00
      0.000000000000e+00       7.583333326438e-01       0.000000000000e+00
      0.000000000000e+00       8.166666680954e-01       0.000000000000e+00
      0.000000000000e+00       8.749999970409e-01       0.000000000000e+00
      0.000000000000e+00       9.333333394635e-01       0.000000000000e+00
      0.000000000000e+00       9.916666539688e-01       0.000000000000e+00
      0.000000000000e+00       1.050000026304e+00       0.000000000000e+00
      0.000000000000e+00       1.108333278846e+00       0.000000000000e+00
      0.000000000000e+00       1.166666779536e+00       0.000000000000e+00
      0.000000000000e+00       1.224999766194e+00       0.000000000000e+00
      0.000000000000e+00       1.283333817658e+00       0.000000000000e+00
      0.000000000000e+00       1.341665663405e+00       0.000000000000e+00
      0.000000000000e+00       1.400002078157e+00       0.000000000000e+00
      0.000000000000e+00       1.458329029127e+00       0.000000000000e+00
      0.000000000000e+00       1.516675574391e+00       0.000000000000e+00
      0.000000000000e+00       1.574981603677e+00       0.000000000000e+00
      0.000000000000e+00       1.633368371384e+00       0.000000000000e+00
      0.000000000000e+00       1.691555810207e+00       0.000000000000e+00
      0.000000000000e+00       1.747814528902e+00       0.000000000000e+00
      0.000000000000e+00       0.000000000000e+00       0.000000000000e+00
      0.000000000000e+00       5.833333333329e-02       0.000000000000e+00
      0.000000000000e+00       1.166666666668e-01       0.000000000000e+00
      0.000000000000e+00       1.749999999998e-01       0.000000000000e+00
      0.000000000000e+00       2.333333333338e-01       0.000000000000e+00
      0.000000000000e+00       2.916666666659e-01       0.000000000000e+00
      0.000000000000e+00       3.500000000018e-01       0.000000000000e+00
      0.000000000000e+00       4.083333333298e-01       0.000000000000e+00
      0.000000000000e+00       4.666666666742e-01       0.000000000000e+00
      0.000000000000e+00       5.249999999845e-01       0.000000000000e+00
      0.000000000000e+00       5.833333333660e-01       0.000000000000e+00
      0.000000000000e+00       6.416666665988e-01       0.000000000000e+00
      0.000000000000e+00       7.000000001421e-01       0.000000000000e+00
      0.000000000000e+00       7.583333330371e-01       0.000000000000e+00
      0.000000000000e+00       8.166666672851e-01       0.000000000000e+00
      0.000000000000e+00       8.749999987103e-01       0.000000000000e+00
      0.000000000000e+00       9.333333360238e-01       0.000000000000e+00
      0.000000000000e+00       9.916666610567e-01       0.000000000000e+00
      0.000000000000e+00       1.050000011697e+00       0.000000000000e+00
      0.000000000000e+00       1.108333308951e+00       0.000000000000e+00
      0.000000000000e+00       1.166666717487e+00       0.000000000000e+00
      0.000000000000e+00       1.224999894095e+00       0.000000000000e+00
      0.000000000000e+00       1.283333554009e+00       0.000000000000e+00
      0.000000000000e+00       1.341666206840e+00       0.000000000000e+00
      0.000000000000e+00       1.400000958474e+00       0.000000000000e+00
      0.000000000000e+00       1.458331333047e+00       0.000000000000e+00
      0.000000000000e+00       1.516670852909e+00       0.000000000000e+00
      0.000000000000e+00       1.574991199462e+00       0.000000000000e+00
      0.000000000000e+00       1.633350647019e+00       0.000000000000e+00
      0.000000000000e+00       1.691617085045e+00       0.000000000000e+00
      0.000000000000e+00       1.748851145961e+00       0.000000000000e+00
      0.000000000000e+00       0.000000000000e+00       0.000000000000e+00
      0.000000000000e+00       5.833333333293e-02       0.000000000000e+00
      0.000000000000e+00       1.166666666674e-01       0.000000000000e+00
      0.000000000000e+00       1.749999999987e-01       0.000000000000e+00
      0.000000000000e+00       2.333333333361e-01       0.000000000000e+00
      0.000000000000e+00       2.916666666612e-01       0.000000000000e+00
      0.000000000000e+00       3.500000000113e-01       0.000000000000e+00
      0.000000000000e+00       4.083333333104e-01       0.000000000000e+00
      0.000000000000e+00       4.666666667139e-01       0.000000000000e+00
      0.000000000000e+00       5.249999999035e-01       0.000000000000e+00
      0.000000000000e+00       5.833333335312e-01       0.000000000000e+00
      0.000000000000e+00       6.416666662618e-01       0.000000000000e+00
      0.000000000000e+00       7.000000008294e-01       0.000000000000e+00
      0.000000000000e+00       7.583333316354e-01       0.000000000000e+00
      0.000000000000e+00       8.166666701438e-01       0.000000000000e+00
      0.000000000000e+00       8.749999928807e-01       0.000000000000e+00
      0.000000000000e+00       9.333333479111e-01       0.000000000000e+00
      0.000000000000e+00       9.916666368187e-01       0.000000000000e+00