# vtk DataFile Version 3.0
output/IGFEM_Model_beam_tension_02.vtk
ASCII
DATASET UNSTRUCTURED_GRID
FIELD FieldData 2
TIME 1 1 double
1.000000e+00
CYCLE 1 1 int
2
POINTS 341 double
      0.000000000000e+00       0.000000000000e+00       0.000000000000e+00
      6.666666666667e-01       0.000000000000e+00       0.000000000000e+00
      1.333333333333e+00       0.000000000000e+00       0.000000000000e+00
      2.000000000000e+00       0.000000000000e+00       0.000000000000e+00
      2.666666666667e+00       0.000000000000e+00       0.000000000000e+00
      3.333333333333e+00       0.000000000000e+00       0.000000000000e+00
      4.000000000000e+00       0.000000000000e+00       0.000000000000e+00
      4.666666666667e+00       0.000000000000e+00       0.000000000000e+00
      5.333333333333e+00       0.000000000000e+00       0.000000000000e+00
      6.000000000000e+00       0.000000000000e+00       0.000000000000e+00
      6.666666666667e+00       0.000000000000e+00       0.000000000000e+00
      7.333333333333e+00       0.000000000000e+00       0.000000000000e+00
      8.000000000000e+00       0.000000000000e+00       0.000000000000e+00
      8.666666666667e+00       0.000000000000e+00       0.000000000000e+00
      9.333333333333e+00       0.000000000000e+00       0.000000000000e+00
      1.000000000000e+01       0.000000000000e+00       0.000000000000e+00
      1.066666666667e+01       0.000000000000e+00       0.000000000000e+00
      1.133333333333e+01       0.000000000000e+00       0.000000000000e+00
      1.200000000000e+01       0.000000000000e+00       0.000000000000e+00
      1.266666666667e+01       0.000000000000e+00       0.000000000000e+00
      1.333333333333e+01       0.000000000000e+00       0.000000000000e+00
      1.400000000000e+01       0.000000000000e+00       0.000000000000e+00
      1.466666666667e+01       0.000000000000e+00       0.000000000000e+00
      1.533333333333e+01       0.000000000000e+00       0.000000000000e+00
      1.600000000000e+01       0.000000000000e+00       0.000000000000e+00
      1.666666666667e+01       0.000000000000e+00       0.000000000000e+00
      1.733333333333e+01       0.000000000000e+00       0.000000000000e+00
      1.800000000000e+01       0.000000000000e+00       0.000000000000e+00
      1.866666666667e+01       0.000000000000e+00       0.000000000000e+00
      1.933333333333e+01       0.000000000000e+00       0.000000000000e+00
      2.000000000000e+01       0.000000000000e+00       0.000000000000e+00
      0.000000000000e+00       2.000000000000e-01       0.000000000000e+00
      6.666666666667e-01       2.000000000000e-01       0.000000000000e+00
      1.333333333333e+00       2.000000000000e-01       0.000000000000e+00
      2.000000000000e+00       2.000000000000e-01       0.000000000000e+00
      2.666666666667e+00       2.000000000000e-01       0.000000000000e+00
      3.333333333333e+00       2.000000000000e-01       0.000000000000e+00
      4.000000000000e+00       2.000000000000e-01       0.000000000000e+00
      4.666666666667e+00       2.000000000000e-01       0.000000000000e+00
      5.333333333333e+00       2.000000000000e-01       0.000000000000e+00
      6.000000000000e+00       2.000000000000e-01       0.000000000000e+00
      6.666666666667e+00       2.000000000000e-01       0.000000000000e+00
      7.333333333333e+00       2.000000000000e-01       0.000000000000e+00
      8.000000000000e+00       2.000000000000e-01       0.000000000000e+00
      8.666666666667e+00       2.000000000000e-01       0.000000000000e+00
      9.333333333333e+00       2.000000000000e-01       0.000000000000e+00
      1.000000000000e+01       2.000000000000e-01       0.000000000000e+00
      1.066666666667e+01       2.000000000000e-01       0.000000000000e+00
      1.133333333333e+01       2.000000000000e-01       0.000000000000e+00
      1.200000000000e+01       2.000000000000e-01       0.000000000000e+00
      1.266666666667e+01       2.000000000000e-01       0.000000000000e+00
      1.333333333333e+01       2.000000000000e-01       0.000000000000e+00
      1.400000000000e+01       2.000000000000e-01       0.000000000000e+00
      1.466666666667e+01       2.000000000000e-01       0.000000000000e+00
      1.533333333333e+01       2.000000000000e-01       0.000000000000e+00
      1.600000000000e+01       2.000000000000e-01       0.000000000000e+00
      1.666666666667e+01       2.000000000000e-01       0.000000000000e+00
      1.733333333333e+01       2.000000000000e-01       0.000000000000e+00
      1.800000000000e+01       2.000000000000e-01       0.000000000000e+00
      1.866666666667e+01       2.000000000000e-01       0.000000000000e+00
      1.933333333333e+01       2.000000000000e-01       0.000000000000e+00
      2.000000000000e+01       2.000000000000e-01       0.000000000000e+00
      0.000000000000e+00       4.000000000000e-01       0.000000000000e+00
      6.666666666667e-01       4.000000000000e-01       0.000000000000e+00
      1.333333333333e+00       4.000000000000e-01       0.000000000000e+00
      2.000000000000e+00       4.000000000000e-01       0.000000000000e+00
      2.666666666667e+00       4.000000000000e-01       0.000000000000e+00
      3.333333333333e+00       4.000000000000e-01       0.000000000000e+00
      4.000000000000e+00       4.000000000000e-01       0.000000000000e+00
      4.666666666667e+00       4.000000000000e-01       0.000000000000e+00
      5.333333333333e+00       4.000000000000e-01       0.000000000000e+00
      6.000000000000e+00       4.000000000000e-01       0.000000000000e+00
      6.666666666667e+00       4.000000000000e-01       0.000000000000e+00
      7.333333333333e+00       4.000000000000e-01       0.000000000000e+00
      8.000000000000e+00       4.000000000000e-01       0.000000000000e+00
      8.666666666667e+00       4.000000000000e-01       0.000000000000e+00
      9.333333333333e+00       4.000000000000e-01       0.000000000000e+00
      1.000000000000e+01       4.000000000000e-01       0.000000000000e+00
      1.066666666667e+01       4.000000000000e-01       0.000000000000e+00
      1.133333333333e+01       4.000000000000e-01       0.000000000000e+00
      1.200000000000e+01       4.000000000000e-01       0.000000000000e+00
      1.266666666667e+01       4.000000000000e-01       0.000000000000e+00
      1.333333333333e+01       4.000000000000e-01       0.000000000000e+00
      1.400000000000e+01       4.000000000000e-01       0.000000000000e+00
      1.466666666667e+01       4.000000000000e-01       0.000000000000e+00
      1.533333333333e+01       4.000000000000e-01       0.000000000000e+00
      1.600000000000e+01       4.000000000000e-01       0.000000000000e+00
      1.666666666667e+01       4.000000000000e-01       0.000000000000e+00
      1.733333333333e+01       4.000000000000e-01       0.000000000000e+00
      1.800000000000e+01       4.000000000000e-01       0.000000000000e+00
      1.866666666667e+01       4.000000000000e-01       0.000000000000e+00
      1.933333333333e+01       4.000000000000e-01       0.000000000000e+00
      2.000000000000e+01       4.000000000000e-01       0.000000000000e+00
      0.000000000000e+00       6.000000000000e-01       0.000000000000e+00
      6.666666666667e-01       6.000000000000e-01       0.000000000000e+00
      1.333333333333e+00       6.000000000000e-01       0.000000000000e+00
      2.000000000000e+00       6.000000000000e-01       0.000000000000e+00
      2.666666666667e+00       6.000000000000e-01       0.000000000000e+00
      3.333333333333e+00       6.000000000000e-01       0.000000000000e+00
      4.000000000000e+00       6.000000000000e-01       0.000000000000e+00
      4.666666666667e+00       6.000000000000e-01       0.000000000000e+00
      5.333333333333e+00       6.000000000000e-01       0.000000000000e+00
      6.000000000000e+00       6.000000000000e-01       0.000000000000e+00
      6.666666666667e+00       6.000000000000e-01       0.000000000000e+00
      7.333333333333e+00       6.000000000000e-01       0.000000000000e+00
      8.000000000000e+00       6.000000000000e-01       0.000000000000e+00
      8.666666666667e+00       6.000000000000e-01       0.000000000000e+00
      9.333333333333e+00       6.000000000000e-01       0.000000000000e+00
      1.000000000000e+01       6.000000000000e-01       0.000000000000e+00
      1.066666666667e+01       6.000000000000e-01       0.000000000000e+00
      1.133333333333e+01       6.000000000000e-01       0.000000000000e+00
      1.200000000000e+01       6.000000000000e-01       0.000000000000e+00
      1.266666666667e+01       6.000000000000e-01       0.000000000000e+00
      1.333333333333e+01       6.000000000000e-01       0.000000000000e+00
      1.400000000000e+01       6.000000000000e-01       0.000000000000e+00
      1.466666666667e+01       6.000000000000e-01       0.000000000000e+00
      1.533333333333e+01       6.000000000000e-01       0.000000000000e+00
      1.600000000000e+01       6.000000000000e-01       0.000000000000e+00
      1.666666666667e+01       6.000000000000e-01       0.000000000000e+00
      1.733333333333e+01       6.000000000000e-01       0.000000000000e+00
      1.800000000000e+01       6.000000000000e-01       0.000000000000e+00
      1.866666666667e+01       6.000000000000e-01       0.000000000000e+00
      1.933333333333e+01       6.000000000000e-01       0.000000000000e+00
      2.000000000000e+01       6.000000000000e-01       0.000000000000e+00
      0.000000000000e+00       8.000000000000e-01       0.000000000000e+00
      6.666666666667e-01       8.000000000000e-01       0.000000000000e+00
      1.333333333333e+00       8.000000000000e-01       0.000000000000e+00
      2.000000000000e+00       8.000000000000e-01       0.000000000000e+00
      2.666666666667e+00       8.000000000000e-01       0.000000000000e+00
      3.333333333333e+00       8.000000000000e-01       0.000000000000e+00
[...]
POINT_DATA 341
VECTORS DSPL double
      0.000000000000e+00       0.000000000000e+00       0.000000000000e+00
      3.333333333333e-01      -1.252509976114e-14       0.000000000000e+00
      6.666666666666e-01      -2.852162330875e-14       0.000000000000e+00
      9.999999999999e-01      -5.321504410037e-14       0.000000000000e+00
      1.333333333333e+00      -8.542094638244e-14       0.000000000000e+00
      1.666666666667e+00      -1.239506260984e-13       0.000000000000e+00
      2.000000000000e+00      -1.668230192822e-13       0.000000000000e+00
      2.333333333333e+00      -2.138420774493e-13       0.000000000000e+00
      2.666666666667e+00      -2.633660787378e-13       0.000000000000e+00
      3.000000000000e+00      -3.157843679955e-13       0.000000000000e+00
      3.333333333333e+00      -3.704362078285e-13       0.000000000000e+00
      3.666666666667e+00      -4.252419338330e-13       0.000000000000e+00
      4.000000000000e+00      -4.814939298273e-13       0.000000000000e+00
      4.333333333333e+00      -5.341321883689e-13       0.000000000000e+00
      4.666666666667e+00      -5.831144068955e-13       0.000000000000e+00
      5.000000000000e+00      -6.327244753408e-13       0.000000000000e+00
      5.333333333333e+00      -6.797689485806e-13       0.000000000000e+00
      5.666666666667e+00      -7.252483542425e-13       0.000000000000e+00
      6.000000000000e+00      -7.699288499251e-13       0.000000000000e+00
      6.333333333333e+00      -8.104108949906e-13       0.000000000000e+00
      6.666666666667e+00      -8.459875803147e-13       0.000000000000e+00
      7.000000000000e+00      -8.804808872868e-13       0.000000000000e+00
      7.333333333333e+00      -9.102324239314e-13       0.000000000000e+00
      7.666666666667e+00      -9.343625661556e-13       0.000000000000e+00
      8.000000000000e+00      -9.564292839908e-13       0.000000000000e+00
      8.333333333333e+00      -9.756070092493e-13       0.000000000000e+00
      8.666666666667e+00      -9.949228317859e-13       0.000000000000e+00
      9.000000000000e+00      -1.016012701204e-12       0.000000000000e+00
      9.333333333333e+00      -1.031649859152e-12       0.000000000000e+00
      9.666666666667e+00      -1.041891066747e-12       0.000000000000e+00
      1.000000000000e+01      -1.048857431125e-12       0.000000000000e+00
      0.000000000000e+00      -3.333333333333e-02       0.000000000000e+00
      3.333333333333e-01      -3.333333333334e-02       0.000000000000e+00
      6.666666666666e-01      -3.333333333336e-02       0.000000000000e+00
      1.000000000000e+00      -3.333333333339e-02       0.000000000000e+00
      1.333333333333e+00      -3.333333333342e-02       0.000000000000e+00
      1.666666666667e+00      -3.333333333346e-02       0.000000000000e+00
      2.000000000000e+00      -3.333333333350e-02       0.000000000000e+00
      2.333333333333e+00      -3.333333333355e-02       0.000000000000e+00
      2.666666666667e+00      -3.333333333360e-02       0.000000000000e+00
      3.000000000000e+00      -3.333333333365e-02       0.000000000000e+00
      3.333333333333e+00      -3.333333333370e-02       0.000000000000e+00
      3.666666666667e+00      -3.333333333376e-02       0.000000000000e+00
      4.000000000000e+00      -3.333333333381e-02       0.000000000000e+00
      4.333333333333e+00      -3.333333333387e-02       0.000000000000e+00
      4.666666666667e+00      -3.333333333392e-02       0.000000000000e+00
      5.000000000000e+00      -3.333333333397e-02       0.000000000000e+00
      5.333333333333e+00      -3.333333333401e-02       0.000000000000e+00
      5.666666666667e+00      -3.333333333406e-02       0.000000000000e+00
      6.000000000000e+00      -3.333333333410e-02       0.000000000000e+00
      6.333333333333e+00      -3.333333333414e-02       0.000000000000e+00
      6.666666666667e+00      -3.333333333418e-02       0.000000000000e+00
      7.000000000000e+00      -3.333333333421e-02       0.000000000000e+00
      7.333333333333e+00      -3.333333333424e-02       0.000000000000e+00
      7.666666666667e+00      -3.333333333427e-02       0.000000000000e+00
      8.000000000000e+00      -3.333333333429e-02       0.000000000000e+00
      8.333333333333e+00      -3.333333333431e-02       0.000000000000e+00
      8.666666666667e+00      -3.333333333433e-02       0.000000000000e+00
      9.000000000000e+00      -3.333333333435e-02       0.000000000000e+00
      9.333333333333e+00      -3.333333333437e-02       0.000000000000e+00
      9.666666666667e+00      -3.333333333438e-02       0.000000000000e+00
      1.000000000000e+01      -3.333333333438e-02       0.000000000000e+00
      0.000000000000e+00      -6.666666666667e-02       0.000000000000e+00
      3.333333333333e-01      -6.666666666668e-02       0.000000000000e+00
      6.666666666666e-01      -6.666666666669e-02       0.000000000000e+00
      1.000000000000e+00      -6.666666666672e-02       0.000000000000e+00
      1.333333333333e+00      -6.666666666675e-02       0.000000000000e+00
      1.666666666667e+00      -6.666666666679e-02       0.000000000000e+00
      2.000000000000e+00      -6.666666666683e-02       0.000000000000e+00
      2.333333333333e+00      -6.666666666688e-02       0.000000000000e+00
      2.666666666667e+00      -6.666666666693e-02       0.000000000000e+00
      3.000000000000e+00      -6.666666666698e-02       0.000000000000e+00
      3.333333333333e+00      -6.666666666704e-02       0.000000000000e+00
      3.666666666667e+00      -6.666666666709e-02       0.000000000000e+00
      4.000000000000e+00      -6.666666666715e-02       0.000000000000e+00
      4.333333333333e+00      -6.666666666720e-02       0.000000000000e+00
      4.666666666667e+00      -6.666666666725e-02       0.000000000000e+00
      5.000000000000e+00      -6.666666666730e-02       0.000000000000e+00
      5.333333333333e+00      -6.666666666735e-02       0.000000000000e+00
      5.666666666667e+00      -6.666666666739e-02       0.000000000000e+00
      6.000000000000e+00      -6.666666666744e-02       0.000000000000e+00
      6.333333333333e+00      -6.666666666748e-02       0.000000000000e+00
      6.666666666667e+00      -6.666666666751e-02       0.000000000000e+00
      7.000000000000e+00      -6.666666666755e-02       0.000000000000e+00
      7.333333333333e+00      -6.666666666758e-02       0.000000000000e+00
      7.666666666667e+00      -6.666666666760e-02       0.000000000000e+00
      8.000000000000e+00      -6.666666666762e-02       0.000000000000e+00
      8.333333333333e+00      -6.666666666764e-02       0.000000000000e+00
      8.666666666667e+00      -6.666666666766e-02       0.000000000000e+00
      9.000000000000e+00      -6.666666666769e-02       0.000000000000e+00
      9.333333333333e+00      -6.666666666770e-02       0.000000000000e+00
      9.666666666667e+00      -6.666666666771e-02       0.000000000000e+00
      1.000000000000e+01      -6.666666666772e-02       0.000000000000e+00
      0.000000000000e+00      -1.000000000000e-01       0.000000000000e+00
      3.333333333333e-01      -1.000000000000e-01       0.000000000000e+00
      6.666666666666e-01      -1.000000000000e-01       0.000000000000e+00
      1.000000000000e+00      -1.000000000000e-01       0.000000000000e+00
      1.333333333333e+00      -1.000000000001e-01       0.000000000000e+00
      1.666666666667e+00      -1.000000000001e-01       0.000000000000e+00
      2.000000000000e+00      -1.000000000002e-01       0.000000000000e+00
      2.333333333333e+00      -1.000000000002e-01       0.000000000000e+00
      2.666666666667e+00      -1.000000000003e-01       0.000000000000e+00
      3.000000000000e+00      -1.000000000003e-01       0.000000000000e+00
      3.333333333333e+00      -1.000000000004e-01       0.000000000000e+00
      3.666666666667e+00      -1.000000000004e-01       0.000000000000e+00
      4.000000000000e+00      -1.000000000005e-01       0.000000000000e+00
      4.333333333333e+00      -1.000000000005e-01       0.000000000000e+00
      4.666666666667e+00      -1.000000000006e-01       0.000000000000e+00
      5.000000000000e+00      -1.000000000006e-01       0.000000000000e+00
      5.333333333333e+00      -1.000000000007e-01       0.000000000000e+00
      5.666666666667e+00      -1.000000000007e-01       0.000000000000e+00
      6.000000000000e+00      -1.000000000008e-01       0.000000000000e+00
      6.333333333333e+00      -1.000000000008e-01       0.000000000000e+00
      6.666666666667e+00      -1.000000000008e-01       0.000000000000e+00
      7.000000000000e+00      -1.000000000009e-01       0.000000000000e+00
      7.333333333333e+00      -1.000000000009e-01       0.000000000000e+00
      7.666666666667e+00      -1.000000000009e-01       0.000000000000e+00
      8.000000000000e+00      -1.000000000010e-01       0.000000000000e+00
      8.333333333333e+00      -1.000000000010e-01       0.000000000000e+00
      8.666666666667e+00      -1.000000000010e-01       0.000000000000e+00
      9.000000000000e+00      -1.000000000010e-01       0.000000000000e+00
      9.333333333333e+00      -1.000000000010e-01       0.000000000000e+00
      9.666666666667e+00      -1.000000000010e-01       0.000000000000e+00
      1.000000000000e+01      -1.000000000011e-01       0.000000000000e+00
      0.000000000000e+00      -1.333333333333e-01       0.000000000000e+00
      3.333333333333e-01      -1.333333333333e-01       0.000000000000e+00
      6.666666666667e-01      -1.333333333334e-01       0.000000000000e+00
      1.000000000000e+00      -1.333333333334e-01       0.000000000000e+00
      1.333333333333e+00      -1.333333333334e-01       0.000000000000e+00
      1.666666666667e+00      -1.333333333335e-01       0.000000000000e+00
      2.000000000000e+00      -1.333333333335e-01       0.000000000000e+00
      2.333333333333e+00      -1.333333333335e-01       0.000000000000e+00
      2.666666666667e+00      -1.333333333336e-01       0.000000000000e+00
      3.000000000000e+00      -1.333333333336e-01       0.000000000000e+00
      3.333333333333e+00      -1.333333333337e-01       0.000000000000e+00
      3.666666666667e+00      -1.333333333338e-01       0.000000000000e+00
      4.000000000000e+00      -1.333333333338e-01       0.000000000000e+00
      4.333333333333e+00      -1.333333333339e-01       0.000000000000e+00
      4.666666666667e+00      -1.333333333339e-01       0.000000000000e+00
      5.000000000000e+00      -1.333333333340e-01       0.000000000000e+00
      5.333333333333e+00      -1.333333333340e-01       0.000000000000e+00
      5.666666666667e+00      -1.333333333341e-01       0.000000000000e+00
      6.000000000000e+00      -1.333333333341e-01       0.000000000000e+00
      6.333333333333e+00      -1.333333333341e-01       0.000000000000e+00
      6.666666666667e+00      -1.333333333342e-01       0.000000000000e+00
      7.000000000000e+00      -1.333333333342e-01       0.000000000000e+00
      7.333333333333e+00      -1.333333333342e-01       0.000000000000e+00
      7.666666666667e+00      -1.333333333343e-01       0.000000000000e+00
      8.000000000000e+00      -1.333333333343e-01       0.000000000000e+00
      8.333333333333e+00      -1.333333333343e-01       0.000000000000e+00
      8.666666666667e+00      -1.333333333343e-01       0.000000000000e+00
      9.000000000000e+00      -1.333333333344e-01       0.000000000000e+00
      9.333333333333e+00      -1.333333333344e-01       0.000000000000e+00
      9.666666666667e+00      -1.333333333344e-01       0.000000000000e+00
      1.000000000000e+01      -1.333333333344e-01       0.000000000000e+00
      0.000000000000e+00      -1.666666666667e-01       0.000000000000e+00
      3.333333333333e-01      -1.666666666667e-01       0.000000000000e+00
      6.666666666667e-01      -1.666666666667e-01       0.000000000000e+00
      1.000000000000e+00      -1.666666666667e-01       0.000000000000e+00
      1.333333333333e+00      -1.666666666667e-01       0.000000000000e+00
      1.666666666667e+00      -1.666666666668e-01       0.000000000000e+00
      2.000000000000e+00      -1.666666666668e-01       0.000000000000e+00
      2.333333333333e+00      -1.666666666669e-01       0.000000000000e+00
      2.666666666667e+00      -1.666666666669e-01       0.000000000000e+00
      3.000000000000e+00      -1.666666666670e-01       0.000000000000e+00
      3.333333333333e+00      -1.666666666670e-01       0.000000000000e+00
      3.666666666667e+00      -1.666666666671e-01       0.000000000000e+00
      4.000000000000e+00      -1.666666666671e-01       0.000000000000e+00
      4.333333333333e+00      -1.666666666672e-01       0.000000000000e+00
      4.666666666667e+00      -1.666666666673e-01       0.000000000000e+00
      5.000000000000e+00      -1.666666666673e-01       0.000000000000e+00
      5.333333333333e+00      -1.666666666673e-01       0.000000000000e+00
      5.666666666667e+00      -1.666666666674e-01       0.000000000000e+00
      6.000000000000e+00      -1.666666666674e-01       0.000000000000e+00
      6.333333333333e+00      -1.666666666675e-01       0.000000000000e+00
      6.666666666667e+00      -1.666666666675e-01       0.000000000000e+00
      7.000000000000e+00      -1.666666666676e-01       0.000000000000e+00
      7.333333333333e+00      -1.666666666676e-01       0.000000000000e+00
      7.666666666667e+00      -1.666666666676e-01       0.000000000000e+00
      8.000000000000e+00      -1.666666666676e-01       0.000000000000e+00
      8.333333333333e+00      -1.666666666676e-01       0.000000000000e+00
      8.666666666667e+00      -1.666666666677e-01       0.000000000000e+00
      9.000000000000e+00      -1.666666666677e-01       0.000000000000e+00
      9.333333333333e+00      -1.666666666677e-01       0.000000000000e+00
      9.666666666667e+00      -1.666666666677e-01       0.000000000000e+00
      1.000000000000e+01      -1.666666666677e-01       0.000000000000e+00
      0.000000000000e+00      -2.000000000000e-01       0.000000000000e+00
      3.333333333333e-01      -2.000000000000e-01       0.000000000000e+00
      6.666666666667e-01      -2.000000000000e-01       0.000000000000e+00
      1.000000000000e+00      -2.000000000000e-01       0.000000000000e+00
      1.333333333333e+00      -2.000000000001e-01       0.000000000000e+00
      1.666666666667e+00      -2.000000000001e-01       0.000000000000e+00
      2.000000000000e+00      -2.000000000002e-01       0.000000000000e+00
      2.333333333333e+00      -2.000000000002e-01       0.000000000000e+00
      2.666666666667e+00      -2.000000000003e-01       0.000000000000e+00
      3.000000000000e+00      -2.000000000003e-01       0.000000000000e+00
      3.333333333333e+00      -2.000000000004e-01       0.000000000000e+00
      3.666666666667e+00      -2.000000000004e-01       0.000000000000e+00
      4.000000000000e+00      -2.000000000005e-01       0.000000000000e+00
      4.333333333333e+00      -2.000000000005e-01       0.000000000000e+00
      4.666666666667e+00      -2.000000000006e-01       0.000000000000e+00
      5.000000000000e+00      -2.000000000006e-01       0.000000000000e+00
      5.333333333333e+00      -2.000000000007e-01       0.000000000000e+00
      5.666666666667e+00      -2.000000000007e-01       0.000000000000e+00
      6.000000000000e+00      -2.000000000008e-01       0.000000000000e+00
      6.333333333333e+00      -2.000000000008e-01       0.000000000000e+00
      6.666666666667e+00      -2.000000000009e-01       0.000000000000e+00
      7.000000000000e+00      -2.000000000009e-01       0.000000000000e+00
      7.333333333333e+00      -2.000000000009e-01       0.000000000000e+00
      7.666666666667e+00      -2.000000000009e-01       0.000000000000e+00
      8.000000000000e+00      -2.000000000010e-01       0.000000000000e+00
      8.333333333333e+00      -2.000000000010e-01       0.000000000000e+00
      8.666666666667e+00      -2.000000000010e-01       0.000000000000e+00
      9.000000000000e+00      -2.000000000010e-01       0.000000000000e+00
      9.333333333333e+00      -2.000000000010e-01       0.000000000000e+00
      9.666666666667e+00      -2.000000000010e-01       0.000000000000e+00
      1.000000000000e+01      -2.000000000011e-01       0.000000000000e+00
      0.000000000000e+00      -2.333333333333e-01       0.000000000000e+00
      3.333333333333e-01      -2.333333333333e-01       0.000000000000e+00
      6.666666666667e-01      -2.333333333334e-01       0.000000000000e+00
      1.000000000000e+00      -2.333333333334e-01       0.000000000000e+00
      1.333333333333e+00      -2.333333333334e-01       0.000000000000e+00
      1.666666666667e+00      -2.333333333335e-01       0.000000000000e+00
      2.000000000000e+00      -2.333333333335e-01       0.000000000000e+00
      2.333333333333e+00      -2.333333333335e-01       0.000000000000e+00
      2.666666666667e+00      -2.333333333336e-01       0.000000000000e+00
      3.000000000000e+00      -2.333333333336e-01       0.000000000000e+00
      3.333333333333e+00      -2.333333333337e-01       0.000000000000e+00
      3.666666666667e+00      -2.333333333338e-01       0.000000000000e+00
      4.000000000000e+00      -2.333333333338e-01       0.000000000000e+00
      4.333333333333e+00      -2.333333333339e-01       0.000000000000e+00
      4.666666666667e+00      -2.333333333339e-01       0.000000000000e+00
      5.000000000000e+00      -2.333333333340e-01       0.000000000000e+00
      5.333333333333e+00      -2.333333333340e-01       0.000000000000e+00
      5.666666666667e+00      -2.333333333341e-01       0.000000000000e+00
      6.000000000000e+00      -2.333333333341e-01       0.000000000000e+00
      6.333333333333e+00      -2.333333333341e-01       0.000000000000e+00
      6.666666666667e+00      -2.333333333342e-01       0.000000000000e+00
      7.000000000000e+00      -2.333333333342e-01       0.000000000000e+00
      7.333333333333e+00      -2.333333333342e-01       0.000000000000e+00
      7.666666666667e+00      -2.333333333343e-01       0.000000000000e+00
      8.000000000000e+00      -2.333333333343e-01       0.000000000000e+00
      8.333333333333e+00      -2.333333333343e-01       0.000000000000e+00
      8.666666666667e+00      -2.333333333343e-01       0.000000000000e+00
      9.000000000000e+00      -2.333333333344e-01       0.000000000000e+00
      9.333333333333e+00      -2.333333333344e-01       0.000000000000e+00
      9.666666666667e+00      -2.333333333344e-01       0.000000000000e+00
      1.000000000000e+01      -2.333333333344e-01       0.000000000000e+00
      0.000000000000e+00      -2.666666666667e-01       0.000000000000e+00
      3.333333333333e-01      -2.666666666667e-01       0.000000000000e+00
      6.666666666667e-01      -2.666666666667e-01       0.000000000000e+00
      1.000000000000e+00      -2.666666666667e-01       0.000000000000e+00
      1.333333333333e+00      -2.666666666667e-01       0.000000000000e+00
      1.666666666667e+00      -2.666666666668e-01       0.000000000000e+00
      2.000000000000e+00      -2.666666666668e-01       0.000000000000e+00
      2.333333333333e+00      -2.666666666669e-01       0.000000000000e+00
      2.666666666667e+00      -2.666666666669e-01       0.000000000000e+00
      3.000000000000e+00      -2.666666666670e-01       0.000000000000e+00
      3.333333333333e+00      -2.666666666670e-01       0.000000000000e+00
      3.666666666667e+00      -2.666666666671e-01       0.000000000000e+00
      4.000000000000e+00      -2.666666666671e-01       0.000000000000e+00
      4.333333333333e+00      -2.666666666672e-01       0.000000000000e+00
      4.666666666667e+00      -2.666666666672e-01       0.000000000000e+00
      5.000000000000e+00      -2.666666666673e-01       0.000000000000e+00
      5.333333333333e+00      -2.666666666673e-01       0.000000000000e+00
      5.666666666667e+00      -2.666666666674e-01       0.000000000000e+00