# vtk DataFile Version 3.0
ohnebeam_tension_02.vtk
ASCII
DATASET UNSTRUCTURED_GRID
FIELD FieldData 2
TIME 1 1 double
1.000000e+00
CYCLE 1 1 int
2
POINTS 341 double
      0.000000000000e+00       0.000000000000e+00       0.000000000000e+00
      6.666666666667e-01       0.000000000000e+00       0.000000000000e+00
      1.333333333333e+00       0.000000000000e+00       0.000000000000e+00
      2.000000000000e+00       0.000000000000e+00       0.000000000000e+00
      2.666666666667e+00       0.000000000000e+00       0.000000000000e+00
      3.333333333333e+00       0.000000000000e+00       0.000000000000e+00
      4.000000000000e+00       0.000000000000e+00       0.000000000000e+00
      4.666666666667e+00       0.000000000000e+00       0.000000000000e+00
      5.333333333333e+00       0.000000000000e+00       0.000000000000e+00
      6.000000000000e+00       0.000000000000e+00       0.000000000000e+00
      6.666666666667e+00       0.000000000000e+00       0.000000000000e+00
      7.333333333333e+00       0.000000000000e+00       0.000000000000e+00
      8.000000000000e+00       0.000000000000e+00       0.000000000000e+00
      8.666666666667e+00       0.000000000000e+00       0.000000000000e+00
      9.333333333333e+00       0.000000000000e+00       0.000000000000e+00
      1.000000000000e+01       0.000000000000e+00       0.000000000000e+00
      1.066666666667e+01       0.000000000000e+00       0.000000000000e+00
      1.133333333333e+01       0.000000000000e+00       0.000000000000e+00
      1.200000000000e+01       0.000000000000e+00       0.000000000000e+00
      1.266666666667e+01       0.000000000000e+00       0.000000000000e+00
      1.333333333333e+01       0.000000000000e+00       0.000000000000e+00
      1.400000000000e+01       0.000000000000e+00       0.000000000000e+00
      1.466666666667e+01       0.000000000000e+00       0.000000000000e+00
      1.533333333333e+01       0.000000000000e+00       0.000000000000e+00
      1.600000000000e+01       0.000000000000e+00       0.000000000000e+00
      1.666666666667e+01       0.000000000000e+00       0.000000000000e+00
      1.733333333333e+01       0.000000000000e+00       0.000000000000e+00
      1.800000000000e+01       0.000000000000e+00       0.000000000000e+00
      1.866666666667e+01       0.000000000000e+00       0.000000000000e+00
      1.933333333333e+01       0.000000000000e+00       0.000000000000e+00
      2.000000000000e+01       0.000000000000e+00       0.000000000000e+00
      0.000000000000e+00       2.000000000000e-01       0.000000000000e+00
      6.666666666667e-01       2.000000000000e-01       0.000000000000e+00
      1.333333333333e+00       2.000000000000e-01       0.000000000000e+00
      2.000000000000e+00       2.000000000000e-01       0.000000000000e+00
      2.666666666667e+00       2.000000000000e-01       0.000000000000e+00
      3.333333333333e+00       2.000000000000e-01       0.000000000000e+00
      4.000000000000e+00       2.000000000000e-01       0.000000000000e+00
      4.666666666667e+00       2.000000000000e-01       0.000000000000e+00
      5.333333333333e+00       2.000000000000e-01       0.000000000000e+00
      6.000000000000e+00       2.000000000000e-01       0.000000000000e+00
      6.666666666667e+00       2.000000000000e-01       0.000000000000e+00
      7.333333333333e+00       2.000000000000e-01       0.000000000000e+00
      8.000000000000e+00       2.000000000000e-01       0.000000000000e+00
      8.666666666667e+00       2.000000000000e-01       0.000000000000e+00
      9.333333333333e+00       2.000000000000e-01       0.000000000000e+00
      1.000000000000e+01       2.000000000000e-01       0.000000000000e+00
      1.066666666667e+01       2.000000000000e-01       0.000000000000e+00
      1.133333333333e+01       2.000000000000e-01       0.000000000000e+00
      1.200000000000e+01       2.000000000000e-01       0.000000000000e+00
      1.266666666667e+01       2.000000000000e-01       0.000000000000e+00
      1.333333333333e+01       2.000000000000e-01       0.000000000000e+00
      1.400000000000e+01       2.000000000000e-01       0.000000000000e+00
      1.466666666667e+01       2.000000000000e-01       0.000000000000e+00
      1.533333333333e+01       2.000000000000e-01       0.000000000000e+00
      1.600000000000e+01       2.000000000000e-01       0.000000000000e+00
      1.666666666667e+01       2.000000000000e-01       0.000000000000e+00
      1.733333333333e+01       2.000000000000e-01       0.000000000000e+00
      1.800000000000e+01       2.000000000000e-01       0.000000000000e+00
      1.866666666667e+01       2.000000000000e-01       0.000000000000e+00
      1.933333333333e+01       2.000000000000e-01       0.000000000000e+00
      2.000000000000e+01       2.000000000000e-01       0.000000000000e+00
      0.000000000000e+00       4.000000000000e-01       0.000000000000e+00
      6.666666666667e-01       4.000000000000e-01       0.000000000000e+00
      1.333333333333e+00       4.000000000000e-01       0.000000000000e+00
      2.000000000000e+00       4.000000000000e-01       0.000000000000e+00
      2.666666666667e+00       4.000000000000e-01       0.000000000000e+00
      3.333333333333e+00       4.000000000000e-01       0.000000000000e+00
      4.000000000000e+00       4.000000000000e-01       0.000000000000e+00
      4.666666666667e+00       4.000000000000e-01       0.000000000000e+00
      5.333333333333e+00       4.000000000000e-01       0.000000000000e+00
      6.000000000000e+00       4.000000000000e-01       0.000000000000e+00
      6.666666666667e+00       4.000000000000e-01       0.000000000000e+00
      7.333333333333e+00       4.000000000000e-01       0.000000000000e+00
      8.000000000000e+00       4.000000000000e-01       0.000000000000e+00
      8.666666666667e+00       4.000000000000e-01       0.000000000000e+00
      9.333333333333e+00       4.000000000000e-01       0.000000000000e+00
      1.000000000000e+01       4.000000000000e-01       0.000000000000e+00
      1.066666666667e+01       4.000000000000e-01       0.000000000000e+00
      1.133333333333e+01       4.000000000000e-01       0.000000000000e+00
      1.200000000000e+01       4.000000000000e-01       0.000000000000e+00
      1.266666666667e+01       4.000000000000e-01       0.000000000000e+00
      1.333333333333e+01       4.000000000000e-01       0.000000000000e+00
      1.400000000000e+01       4.000000000000e-01       0.000000000000e+00
      1.466666666667e+01       4.000000000000e-01       0.000000000000e+00
      1.533333333333e+01       4.000000000000e-01       0.000000000000e+00
      1.600000000000e+01       4.000000000000e-01       0.000000000000e+00
      1.666666666667e+01       4.000000000000e-01       0.000000000000e+00
      1.733333333333e+01       4.000000000000e-01       0.000000000000e+00
      1.800000000000e+01       4.000000000000e-01       0.000000000000e+00
      1.866666666667e+01       4.000000000000e-01       0.000000000000e+00
      1.933333333333e+01       4.000000000000e-01       0.000000000000e+00
      2.000000000000e+01       4.000000000000e-01       0.000000000000e+00
      0.000000000000e+00       6.000000000000e-01       0.000000000000e+00
      6.666666666667e-01       6.000000000000e-01       0.000000000000e+00
      1.333333333333e+00       6.000000000000e-01       0.000000000000e+00
      2.000000000000e+00       6.000000000000e-01       0.000000000000e+00
      2.666666666667e+00       6.000000000000e-01       0.000000000000e+00
      3.333333333333e+00       6.000000000000e-01       0.000000000000e+00
      4.000000000000e+00       6.000000000000e-01       0.000000000000e+00
      4.666666666667e+00       6.000000000000e-01       0.000000000000e+00
      5.333333333333e+00       6.000000000000e-01       0.000000000000e+00
      6.000000000000e+00       6.000000000000e-01       0.000000000000e+00
      6.666666666667e+00       6.000000000000e-01       0.000000000000e+00
      7.333333333333e+00       6.000000000000e-01       0.000000000000e+00
      8.000000000000e+00       6.000000000000e-01       0.000000000000e+00
      8.666666666667e+00       6.000000000000e-01       0.000000000000e+00
      9.333333333333e+00       6.000000000000e-01       0.000000000000e+00
      1.000000000000e+01       6.000000000000e-01       0.000000000000e+00
      1.066666666667e+01       6.000000000000e-01       0.000000000000e+00
      1.133333333333e+01       6.000000000000e-01       0.000000000000e+00
      1.200000000000e+01       6.000000000000e-01       0.000000000000e+00
      1.266666666667e+01       6.000000000000e-01       0.000000000000e+00
      1.333333333333e+01       6.000000000000e-01       0.000000000000e+00
      1.400000000000e+01       6.000000000000e-01       0.000000000000e+00
      1.466666666667e+01       6.000000000000e-01       0.000000000000e+00
      1.533333333333e+01       6.000000000000e-01       0.000000000000e+00
      1.600000000000e+01       6.000000000000e-01       0.000000000000e+00
      1.666666666667e+01       6.000000000000e-01       0.000000000000e+00
      1.733333333333e+01       6.000000000000e-01       0.000000000000e+00
      1.800000000000e+01       6.000000000000e-01       0.000000000000e+00
      1.866666666667e+01       6.000000000000e-01       0.000000000000e+00
      1.933333333333e+01       6.000000000000e-01       0.000000000000e+00
      2.000000000000e+01       6.000000000000e-01       0.000000000000e+00
      0.000000000000e+00       8.000000000000e-01       0.000000000000e+00
      6.666666666667e-01       8.000000000000e-01       0.000000000000e+00
      1.333333333333e+00       8.000000000000e-01       0.000000000000e+00
      2.000000000000e+00       8.000000000000e-01       0.000000000000e+00
      2.666666666667e+00       8.000000000000e-01       0.000000000000e+00
      3.333333333333e+00       8.000000000000e-01       0.000000000000e+00
      4.000000000000e+00       8.000000000000e-01       0.000000000000e+00
[...]
POINT_DATA 341
VECTORS DSPL double
      0.000000000000e+00       0.000000000000e+00       0.000000000000e+00
      3.333333333332e-01      -1.242649327459e-13       0.000000000000e+00
      6.666666666665e-01      -2.241337226820e-13       0.000000000000e+00
      9.999999999998e-01      -3.722541585026e-13       0.000000000000e+00
      1.333333333333e+00      -5.696992291114e-13       0.000000000000e+00
      1.666666666666e+00      -8.099686779311e-13       0.000000000000e+00
      2.000000000000e+00      -1.087787071181e-12       0.000000000000e+00
      2.333333333333e+00      -1.398543752280e-12       0.000000000000e+00
      2.666666666666e+00      -1.742049634401e-12       0.000000000000e+00
      2.999999999999e+00      -2.110969483213e-12       0.000000000000e+00
      3.333333333333e+00      -2.505929253646e-12       0.000000000000e+00
      3.666666666666e+00      -2.920049963173e-12       0.000000000000e+00
      3.999999999999e+00      -3.348940260904e-12       0.000000000000e+00
      4.333333333333e+00      -3.790475404666e-12       0.000000000000e+00
      4.666666666666e+00      -4.235937145664e-12       0.000000000000e+00
      4.999999999999e+00      -4.685023567770e-12       0.000000000000e+00
      5.333333333333e+00      -5.128004428482e-12       0.000000000000e+00
      5.666666666666e+00      -5.563584468039e-12       0.000000000000e+00
      5.999999999999e+00      -5.980003547388e-12       0.000000000000e+00
      6.333333333333e+00      -6.373651175912e-12       0.000000000000e+00
      6.666666666666e+00      -6.745306955617e-12       0.000000000000e+00
      7.000000000000e+00      -7.082314079869e-12       0.000000000000e+00
      7.333333333333e+00      -7.384345601724e-12       0.000000000000e+00
      7.666666666666e+00      -7.650859617461e-12       0.000000000000e+00
      8.000000000000e+00      -7.872216934820e-12       0.000000000000e+00
      8.333333333333e+00      -8.063276216671e-12       0.000000000000e+00
      8.666666666666e+00      -8.215084750609e-12       0.000000000000e+00
      9.000000000000e+00      -8.318189297913e-12       0.000000000000e+00
      9.333333333333e+00      -8.387763298667e-12       0.000000000000e+00
      9.666666666667e+00      -8.422836303954e-12       0.000000000000e+00
      1.000000000000e+01      -8.429210959670e-12       0.000000000000e+00
      0.000000000000e+00      -3.333333333339e-02       0.000000000000e+00
      3.333333333333e-01      -3.333333333345e-02       0.000000000000e+00
      6.666666666665e-01      -3.333333333355e-02       0.000000000000e+00
      9.999999999998e-01      -3.333333333370e-02       0.000000000000e+00
      1.333333333333e+00      -3.333333333390e-02       0.000000000000e+00
      1.666666666666e+00      -3.333333333414e-02       0.000000000000e+00
      2.000000000000e+00      -3.333333333442e-02       0.000000000000e+00
      2.333333333333e+00      -3.333333333473e-02       0.000000000000e+00
      2.666666666666e+00      -3.333333333507e-02       0.000000000000e+00
      3.000000000000e+00      -3.333333333544e-02       0.000000000000e+00
      3.333333333333e+00      -3.333333333584e-02       0.000000000000e+00
      3.666666666666e+00      -3.333333333625e-02       0.000000000000e+00
      4.000000000000e+00      -3.333333333668e-02       0.000000000000e+00
      4.333333333333e+00      -3.333333333712e-02       0.000000000000e+00
      4.666666666666e+00      -3.333333333757e-02       0.000000000000e+00
      5.000000000000e+00      -3.333333333802e-02       0.000000000000e+00
      5.333333333333e+00      -3.333333333846e-02       0.000000000000e+00
      5.666666666666e+00      -3.333333333890e-02       0.000000000000e+00
      6.000000000000e+00      -3.333333333932e-02       0.000000000000e+00
      6.333333333333e+00      -3.333333333971e-02       0.000000000000e+00
      6.666666666666e+00      -3.333333334008e-02       0.000000000000e+00
      7.000000000000e+00      -3.333333334042e-02       0.000000000000e+00
      7.333333333333e+00      -3.333333334072e-02       0.000000000000e+00
      7.666666666666e+00      -3.333333334099e-02       0.000000000000e+00
      8.000000000000e+00      -3.333333334121e-02       0.000000000000e+00
      8.333333333333e+00      -3.333333334140e-02       0.000000000000e+00
      8.666666666667e+00      -3.333333334155e-02       0.000000000000e+00
      9.000000000000e+00      -3.333333334166e-02       0.000000000000e+00
      9.333333333333e+00      -3.333333334172e-02       0.000000000000e+00
      9.666666666667e+00      -3.333333334176e-02       0.000000000000e+00
      1.000000000000e+01      -3.333333334177e-02       0.000000000000e+00
      0.000000000000e+00      -6.666666666673e-02       0.000000000000e+00
      3.333333333333e-01      -6.666666666678e-02       0.000000000000e+00
      6.666666666666e-01      -6.666666666688e-02       0.000000000000e+00
      9.999999999999e-01      -6.666666666703e-02       0.000000000000e+00
      1.333333333333e+00      -6.666666666723e-02       0.000000000000e+00
      1.666666666666e+00      -6.666666666747e-02       0.000000000000e+00
      2.000000000000e+00      -6.666666666775e-02       0.000000000000e+00
      2.333333333333e+00      -6.666666666806e-02       0.000000000000e+00
      2.666666666666e+00      -6.666666666840e-02       0.000000000000e+00
      3.000000000000e+00      -6.666666666877e-02       0.000000000000e+00
      3.333333333333e+00      -6.666666666917e-02       0.000000000000e+00
      3.666666666666e+00      -6.666666666958e-02       0.000000000000e+00
      4.000000000000e+00      -6.666666667001e-02       0.000000000000e+00
      4.333333333333e+00      -6.666666667046e-02       0.000000000000e+00
      4.666666666666e+00      -6.666666667090e-02       0.000000000000e+00
      5.000000000000e+00      -6.666666667135e-02       0.000000000000e+00
      5.333333333333e+00      -6.666666667180e-02       0.000000000000e+00
      5.666666666666e+00      -6.666666667223e-02       0.000000000000e+00
      6.000000000000e+00      -6.666666667265e-02       0.000000000000e+00
      6.333333333333e+00      -6.666666667305e-02       0.000000000000e+00
      6.666666666666e+00      -6.666666667342e-02       0.000000000000e+00
      7.000000000000e+00      -6.666666667376e-02       0.000000000000e+00
      7.333333333333e+00      -6.666666667406e-02       0.000000000000e+00
      7.666666666666e+00      -6.666666667433e-02       0.000000000000e+00
      8.000000000000e+00      -6.666666667455e-02       0.000000000000e+00
      8.333333333333e+00      -6.666666667474e-02       0.000000000000e+00
      8.666666666667e+00      -6.666666667489e-02       0.000000000000e+00
      9.000000000000e+00      -6.666666667499e-02       0.000000000000e+00
      9.333333333333e+00      -6.666666667506e-02       0.000000000000e+00
      9.666666666667e+00      -6.666666667510e-02       0.000000000000e+00
      1.000000000000e+01      -6.666666667512e-02       0.000000000000e+00
      0.000000000000e+00      -1.000000000001e-01       0.000000000000e+00
      3.333333333333e-01      -1.000000000001e-01       0.000000000000e+00
      6.666666666666e-01      -1.000000000002e-01       0.000000000000e+00
      9.999999999999e-01      -1.000000000004e-01       0.000000000000e+00
      1.333333333333e+00      -1.000000000006e-01       0.000000000000e+00
      1.666666666667e+00      -1.000000000008e-01       0.000000000000e+00
      2.000000000000e+00      -1.000000000011e-01       0.000000000000e+00
      2.333333333333e+00      -1.000000000014e-01       0.000000000000e+00
      2.666666666667e+00      -1.000000000017e-01       0.000000000000e+00
      3.000000000000e+00      -1.000000000021e-01       0.000000000000e+00
      3.333333333333e+00      -1.000000000025e-01       0.000000000000e+00
      3.666666666666e+00      -1.000000000029e-01       0.000000000000e+00
      4.000000000000e+00      -1.000000000033e-01       0.000000000000e+00
      4.333333333333e+00      -1.000000000038e-01       0.000000000000e+00
      4.666666666666e+00      -1.000000000042e-01       0.000000000000e+00
      5.000000000000e+00      -1.000000000047e-01       0.000000000000e+00
      5.333333333333e+00      -1.000000000051e-01       0.000000000000e+00
      5.666666666666e+00      -1.000000000056e-01       0.000000000000e+00
      6.000000000000e+00      -1.000000000060e-01       0.000000000000e+00
      6.333333333333e+00      -1.000000000064e-01       0.000000000000e+00
      6.666666666667e+00      -1.000000000068e-01       0.000000000000e+00
      7.000000000000e+00      -1.000000000071e-01       0.000000000000e+00
      7.333333333333e+00      -1.000000000074e-01       0.000000000000e+00
      7.666666666667e+00      -1.000000000077e-01       0.000000000000e+00
      8.000000000000e+00      -1.000000000079e-01       0.000000000000e+00
      8.333333333333e+00      -1.000000000081e-01       0.000000000000e+00
      8.666666666667e+00      -1.000000000082e-01       0.000000000000e+00
      9.000000000000e+00      -1.000000000083e-01       0.000000000000e+00
      9.333333333333e+00      -1.000000000084e-01       0.000000000000e+00
      9.666666666667e+00      -1.000000000084e-01       0.000000000000e+00
      1.000000000000e+01      -1.000000000084e-01       0.000000000000e+00
      0.000000000000e+00      -1.333333333334e-01       0.000000000000e+00
      3.333333333333e-01      -1.333333333334e-01       0.000000000000e+00
      6.666666666666e-01      -1.333333333335e-01       0.000000000000e+00
      1.000000000000e+00      -1.333333333337e-01       0.000000000000e+00
      1.333333333333e+00      -1.333333333339e-01       0.000000000000e+00
      1.666666666667e+00      -1.333333333341e-01       0.000000000000e+00
      2.000000000000e+00      -1.333333333344e-01       0.000000000000e+00
      2.333333333333e+00      -1.333333333347e-01       0.000000000000e+00
      2.666666666667e+00      -1.333333333351e-01       0.000000000000e+00
      3.000000000000e+00      -1.333333333354e-01       0.000000000000e+00
      3.333333333333e+00      -1.333333333358e-01       0.000000000000e+00
      3.666666666667e+00      -1.333333333362e-01       0.000000000000e+00
      4.000000000000e+00      -1.333333333367e-01       0.000000000000e+00
      4.333333333333e+00      -1.333333333371e-01       0.000000000000e+00
      4.666666666667e+00      -1.333333333376e-01       0.000000000000e+00
      5.000000000000e+00      -1.333333333380e-01       0.000000000000e+00
      5.333333333333e+00      -1.333333333385e-01       0.000000000000e+00
      5.666666666667e+00      -1.333333333389e-01       0.000000000000e+00
      6.000000000000e+00      -1.333333333393e-01       0.000000000000e+00
      6.333333333333e+00      -1.333333333397e-01       0.000000000000e+00
      6.666666666667e+00      -1.333333333401e-01       0.000000000000e+00
      7.000000000000e+00      -1.333333333404e-01       0.000000000000e+00
      7.333333333333e+00      -1.333333333407e-01       0.000000000000e+00
      7.666666666667e+00      -1.333333333410e-01       0.000000000000e+00
      8.000000000000e+00      -1.333333333412e-01       0.000000000000e+00
      8.333333333333e+00      -1.333333333414e-01       0.000000000000e+00
      8.666666666667e+00      -1.333333333416e-01       0.000000000000e+00
      9.000000000000e+00      -1.333333333417e-01       0.000000000000e+00
      9.333333333333e+00      -1.333333333417e-01       0.000000000000e+00
      9.666666666667e+00      -1.333333333418e-01       0.000000000000e+00
      1.000000000000e+01      -1.333333333418e-01       0.000000000000e+00
      0.000000000000e+00      -1.666666666667e-01       0.000000000000e+00
      3.333333333333e-01      -1.666666666668e-01       0.000000000000e+00
      6.666666666667e-01      -1.666666666669e-01       0.000000000000e+00
      1.000000000000e+00      -1.666666666670e-01       0.000000000000e+00
      1.333333333333e+00      -1.666666666672e-01       0.000000000000e+00
      1.666666666667e+00      -1.666666666675e-01       0.000000000000e+00
      2.000000000000e+00      -1.666666666677e-01       0.000000000000e+00
      2.333333333333e+00      -1.666666666681e-01       0.000000000000e+00
      2.666666666667e+00      -1.666666666684e-01       0.000000000000e+00
      3.000000000000e+00      -1.666666666688e-01       0.000000000000e+00
      3.333333333333e+00      -1.666666666692e-01       0.000000000000e+00
      3.666666666667e+00      -1.666666666696e-01       0.000000000000e+00
      4.000000000000e+00      -1.666666666700e-01       0.000000000000e+00
      4.333333333333e+00      -1.666666666705e-01       0.000000000000e+00
      4.666666666667e+00      -1.666666666709e-01       0.000000000000e+00
      5.000000000000e+00      -1.666666666714e-01       0.000000000000e+00
      5.333333333333e+00      -1.666666666718e-01       0.000000000000e+00
      5.666666666667e+00      -1.666666666722e-01       0.000000000000e+00
      6.000000000000e+00      -1.666666666727e-01       0.000000000000e+00
      6.333333333333e+00      -1.666666666730e-01       0.000000000000e+00
      6.666666666667e+00      -1.666666666734e-01       0.000000000000e+00
      7.000000000000e+00      -1.666666666738e-01       0.000000000000e+00
      7.333333333333e+00      -1.666666666741e-01       0.000000000000e+00
      7.666666666667e+00      -1.666666666743e-01       0.000000000000e+00
      8.000000000000e+00      -1.666666666745e-01       0.000000000000e+00
      8.333333333333e+00      -1.666666666747e-01       0.000000000000e+00
      8.666666666667e+00      -1.666666666749e-01       0.000000000000e+00
      9.000000000000e+00      -1.666666666750e-01       0.000000000000e+00
      9.333333333333e+00      -1.666666666751e-01       0.000000000000e+00
      9.666666666667e+00      -1.666666666751e-01       0.000000000000e+00
      1.000000000000e+01      -1.666666666751e-01       0.000000000000e+00
      0.000000000000e+00      -2.000000000001e-01       0.000000000000e+00
      3.333333333334e-01      -2.000000000001e-01       0.000000000000e+00
      6.666666666667e-01      -2.000000000002e-01       0.000000000000e+00
      1.000000000000e+00      -2.000000000004e-01       0.000000000000e+00
      1.333333333333e+00      -2.000000000006e-01       0.000000000000e+00
      1.666666666667e+00      -2.000000000008e-01       0.000000000000e+00
      2.000000000000e+00      -2.000000000011e-01       0.000000000000e+00
      2.333333333333e+00      -2.000000000014e-01       0.000000000000e+00
      2.666666666667e+00      -2.000000000017e-01       0.000000000000e+00
      3.000000000000e+00      -2.000000000021e-01       0.000000000000e+00
      3.333333333334e+00      -2.000000000025e-01       0.000000000000e+00
      3.666666666667e+00      -2.000000000029e-01       0.000000000000e+00
      4.000000000000e+00      -2.000000000033e-01       0.000000000000e+00
      4.333333333334e+00      -2.000000000038e-01       0.000000000000e+00
      4.666666666667e+00      -2.000000000042e-01       0.000000000000e+00
      5.000000000000e+00      -2.000000000047e-01       0.000000000000e+00
      5.333333333334e+00      -2.000000000051e-01       0.000000000000e+00
      5.666666666667e+00      -2.000000000056e-01       0.000000000000e+00
      6.000000000000e+00      -2.000000000060e-01       0.000000000000e+00
      6.333333333334e+00      -2.000000000064e-01       0.000000000000e+00
      6.666666666667e+00      -2.000000000068e-01       0.000000000000e+00
      7.000000000000e+00      -2.000000000071e-01       0.000000000000e+00
      7.333333333333e+00      -2.000000000074e-01       0.000000000000e+00
      7.666666666667e+00      -2.000000000077e-01       0.000000000000e+00
      8.000000000000e+00      -2.000000000079e-01       0.000000000000e+00
      8.333333333333e+00      -2.000000000081e-01       0.000000000000e+00
      8.666666666667e+00      -2.000000000082e-01       0.000000000000e+00
      9.000000000000e+00      -2.000000000083e-01       0.000000000000e+00
      9.333333333333e+00      -2.000000000084e-01       0.000000000000e+00
      9.666666666667e+00      -2.000000000084e-01       0.000000000000e+00
      1.000000000000e+01      -2.000000000084e-01       0.000000000000e+00
      0.000000000000e+00      -2.333333333334e-01       0.000000000000e+00
      3.333333333334e-01      -2.333333333334e-01       0.000000000000e+00
      6.666666666667e-01      -2.333333333335e-01       0.000000000000e+00
      1.000000000000e+00      -2.333333333337e-01       0.000000000000e+00
      1.333333333333e+00      -2.333333333339e-01       0.000000000000e+00
      1.666666666667e+00      -2.333333333341e-01       0.000000000000e+00
      2.000000000000e+00      -2.333333333344e-01       0.000000000000e+00
      2.333333333334e+00      -2.333333333347e-01       0.000000000000e+00
      2.666666666667e+00      -2.333333333351e-01       0.000000000000e+00
      3.000000000000e+00      -2.333333333354e-01       0.000000000000e+00
      3.333333333334e+00      -2.333333333358e-01       0.000000000000e+00
      3.666666666667e+00      -2.333333333363e-01       0.000000000000e+00
      4.000000000000e+00      -2.333333333367e-01       0.000000000000e+00
      4.333333333334e+00      -2.333333333371e-01       0.000000000000e+00
      4.666666666667e+00      -2.333333333376e-01       0.000000000000e+00
      5.000000000000e+00      -2.333333333380e-01       0.000000000000e+00
      5.333333333334e+00      -2.333333333385e-01       0.000000000000e+00
      5.666666666667e+00      -2.333333333389e-01       0.000000000000e+00
      6.000000000000e+00      -2.333333333393e-01       0.000000000000e+00
      6.333333333334e+00      -2.333333333397e-01       0.000000000000e+00
      6.666666666667e+00      -2.333333333401e-01       0.000000000000e+00
      7.000000000000e+00      -2.333333333404e-01       0.000000000000e+00
      7.333333333334e+00      -2.333333333407e-01       0.000000000000e+00
      7.666666666667e+00      -2.333333333410e-01       0.000000000000e+00
      8.000000000000e+00      -2.333333333412e-01       0.000000000000e+00
      8.333333333333e+00      -2.333333333414e-01       0.000000000000e+00
      8.666666666667e+00      -2.333333333416e-01       0.000000000000e+00
      9.000000000000e+00      -2.333333333417e-01       0.000000000000e+00
      9.333333333333e+00      -2.333333333417e-01       0.000000000000e+00
      9.666666666667e+00      -2.333333333418e-01       0.000000000000e+00
      1.000000000000e+01      -2.333333333418e-01       0.000000000000e+00
      0.000000000000e+00      -2.666666666668e-01       0.000000000000e+00
      3.333333333334e-01      -2.666666666668e-01       0.000000000000e+00
      6.666666666668e-01      -2.666666666669e-01       0.000000000000e+00
      1.000000000000e+00      -2.666666666670e-01       0.000000000000e+00
      1.333333333334e+00      -2.666666666672e-01       0.000000000000e+00
      1.666666666667e+00      -2.666666666675e-01       0.000000000000e+00
      2.000000000000e+00      -2.666666666678e-01       0.000000000000e+00
      2.333333333334e+00      -2.666666666681e-01       0.000000000000e+00
      2.666666666667e+00      -2.666666666684e-01       0.000000000000e+00
      3.000000000000e+00      -2.666666666688e-01       0.000000000000e+00
      3.333333333334e+00      -2.666666666692e-01       0.000000000000e+00
      3.666666666667e+00      -2.666666666696e-01       0.000000000000e+00
      4.000000000000e+00      -2.666666666700e-01       0.000000000000e+00
      4.333333333334e+00      -2.666666666705e-01       0.000000000000e+00
      4.666666666667e+00      -2.666666666709e-01       0.000000000000e+00
      5.000000000000e+00      -2.666666666714e-01       0.000000000000e+00
      5.333333333334e+00      -2.666666666718e-01       0.000000000000e+00
      5.666666666667e+00      -2.666666666722e-01       0.000000000000e+00